 Entering Gaussian System, Link 0=/fougeron/home/gauss3/g03/g03
 Initial command:
 /fougeron/home/gauss3/g03/l1.exe /fougeron/wrkre/baudinp/Gau-25222.inp -scrdir=/fougeron/wrkre/baudinp/
 Entering Link 1 = /fougeron/home/gauss3/g03/l1.exe PID=     25223.
  
 Copyright (c) 1988,1990,1992,1993,1995,1998,2003,2004, Gaussian, Inc.
                  All Rights Reserved.
  
 This is the Gaussian(R) 03 program.  It is based on the
 the Gaussian(R) 98 system (copyright 1998, Gaussian, Inc.),
 the Gaussian(R) 94 system (copyright 1995, Gaussian, Inc.),
 the Gaussian 92(TM) system (copyright 1992, Gaussian, Inc.),
 the Gaussian 90(TM) system (copyright 1990, Gaussian, Inc.),
 the Gaussian 88(TM) system (copyright 1988, Gaussian, Inc.),
 the Gaussian 86(TM) system (copyright 1986, Carnegie Mellon
 University), and the Gaussian 82(TM) system (copyright 1983,
 Carnegie Mellon University). Gaussian is a federally registered
 trademark of Gaussian, Inc.
  
 This software contains proprietary and confidential information,
 including trade secrets, belonging to Gaussian, Inc.
  
 This software is provided under written license and may be
 used, copied, transmitted, or stored only in accord with that
 written license.
  
 The following legend is applicable only to US Government
 contracts under FAR:
  
                    RESTRICTED RIGHTS LEGEND
  
 Use, reproduction and disclosure by the US Government is
 subject to restrictions as set forth in subparagraphs (a)
 and (c) of the Commercial Computer Software - Restricted
 Rights clause in FAR 52.227-19.
  
 Gaussian, Inc.
 340 Quinnipiac St., Bldg. 40, Wallingford CT 06492
  
  
 ---------------------------------------------------------------
 Warning -- This program may not be used in any manner that
 competes with the business of Gaussian, Inc. or will provide
 assistance to any competitor of Gaussian, Inc.  The licensee
 of this program is prohibited from giving any competitor of
 Gaussian, Inc. access to this program.  By using this program,
 the user acknowledges that Gaussian, Inc. is engaged in the
 business of creating and licensing software in the field of
 computational chemistry and represents and warrants to the
 licensee that it is not a competitor of Gaussian, Inc. and that
 it will not use this program in any manner prohibited above.
 ---------------------------------------------------------------
  

 Cite this work as:
 Gaussian 03, Revision C.02,
 M. J. Frisch, G. W. Trucks, H. B. Schlegel, G. E. Scuseria, 
 M. A. Robb, J. R. Cheeseman, J. A. Montgomery, Jr., T. Vreven, 
 K. N. Kudin, J. C. Burant, J. M. Millam, S. S. Iyengar, J. Tomasi, 
 V. Barone, B. Mennucci, M. Cossi, G. Scalmani, N. Rega, 
 G. A. Petersson, H. Nakatsuji, M. Hada, M. Ehara, K. Toyota, 
 R. Fukuda, J. Hasegawa, M. Ishida, T. Nakajima, Y. Honda, O. Kitao, 
 H. Nakai, M. Klene, X. Li, J. E. Knox, H. P. Hratchian, J. B. Cross, 
 C. Adamo, J. Jaramillo, R. Gomperts, R. E. Stratmann, O. Yazyev, 
 A. J. Austin, R. Cammi, C. Pomelli, J. W. Ochterski, P. Y. Ayala, 
 K. Morokuma, G. A. Voth, P. Salvador, J. J. Dannenberg, 
 V. G. Zakrzewski, S. Dapprich, A. D. Daniels, M. C. Strain, 
 O. Farkas, D. K. Malick, A. D. Rabuck, K. Raghavachari, 
 J. B. Foresman, J. V. Ortiz, Q. Cui, A. G. Baboul, S. Clifford, 
 J. Cioslowski, B. B. Stefanov, G. Liu, A. Liashenko, P. Piskorz, 
 I. Komaromi, R. L. Martin, D. J. Fox, T. Keith, M. A. Al-Laham, 
 C. Y. Peng, A. Nanayakkara, M. Challacombe, P. M. W. Gill, 
 B. Johnson, W. Chen, M. W. Wong, C. Gonzalez, and J. A. Pople, 
 Gaussian, Inc., Wallingford CT, 2004.
 
 ******************************************
 Gaussian 03:  IA64L-G03RevC.02 12-Jun-2004
                26-Jun-2011 
 ******************************************
 ----------------------------------------------------------------------
 #P B3LYP/3-21G gfinput iop(3/33=4) pop=full scf=tight TD=(Nstates=20,m
 axdavidson=500)
 ----------------------------------------------------------------------
 1/38=1/1;
 2/17=6,18=5,40=1/2;
 3/5=5,11=2,16=1,24=10,25=1,30=1,33=4,74=-5/1,2,8,3;
 4//1;
 5/5=2,32=2,38=5/2;
 8/6=1,10=1/1;
 9/6=500,41=20,42=1/14;
 6/7=3/1;
 99/5=1,9=1/99;
 Leave Link    1 at Sun Jun 26 04:53:38 2011, MaxMem=          0 cpu:       0.2
 (Enter /fougeron/home/gauss3/g03/l101.exe)
 -------
 test N2
 -------
 Symbolic Z-matrix:
 Charge =  0 Multiplicity = 1
 N1
 N2                   N1    1.0977 
 
                    Isotopes and Nuclear Properties:

  Atom         1           2
 IAtWgt=          14          14
 AtmWgt=  14.0030740  14.0030740
 IAtSpn=           2           2
 AtZEff=   0.0000000   0.0000000
 AtQMom=   1.5600000   1.5600000
 AtGFac=   0.4037610   0.4037610
 Leave Link  101 at Sun Jun 26 04:53:38 2011, MaxMem=    6291456 cpu:       0.1
 (Enter /fougeron/home/gauss3/g03/l202.exe)
                          Input orientation:                          
 ---------------------------------------------------------------------
 Center     Atomic     Atomic              Coordinates (Angstroms)
 Number     Number      Type              X           Y           Z
 ---------------------------------------------------------------------
    1          7             0        0.000000    0.000000    0.000000
    2          7             0        0.000000    0.000000    1.097700
 ---------------------------------------------------------------------
 Stoichiometry    N2
 Framework group  D*H[C*(N.N)]
 Deg. of freedom     1
 Full point group                 D*H     NOp   8
 Largest Abelian subgroup         D2H     NOp   8
 Largest concise Abelian subgroup C2      NOp   2
                         Standard orientation:                         
 ---------------------------------------------------------------------
 Center     Atomic     Atomic              Coordinates (Angstroms)
 Number     Number      Type              X           Y           Z
 ---------------------------------------------------------------------
    1          7             0        0.000000    0.000000    0.548850
    2          7             0        0.000000    0.000000   -0.548850
 ---------------------------------------------------------------------
 Rotational constants (GHZ):      0.0000000     59.9040906     59.9040906
 Leave Link  202 at Sun Jun 26 04:53:38 2011, MaxMem=    6291456 cpu:       0.1
 (Enter /fougeron/home/gauss3/g03/l301.exe)
 Standard basis: 3-21G (6D, 7F)
                         Coordinates in L301:                         
 ---------------------------------------------------------------------
 Center     Atomic     Atomic              Coordinates (Angstroms)
 Number     Number      Type              X           Y           Z
 ---------------------------------------------------------------------
    1          7             0        0.000000    0.000000    0.548850
    2          7             0        0.000000    0.000000   -0.548850
 ---------------------------------------------------------------------
 Electric field displacement of shell     1 is  0.00D+00
 Electric field displacement of shell     2 is  0.00D+00
 Electric field displacement of shell     3 is  0.00D+00
 Electric field displacement of shell     4 is  0.00D+00
 Electric field displacement of shell     5 is  0.00D+00
 Electric field displacement of shell     6 is  0.00D+00
 AO basis set in the form of general basis input:
  1 0
 S   3 1.00       0.000000000000
      0.2427660000D+03  0.5986570051D-01
      0.3648510000D+02  0.3529550030D+00
      0.7814490000D+01  0.7065130060D+00
 SP   2 1.00       0.000000000000
      0.5425220000D+01 -0.4133000774D+00  0.2379720162D+00
      0.1149150000D+01  0.1224417267D+01  0.8589530586D+00
 SP   1 1.00       0.000000000000
      0.2832050000D+00  0.1000000000D+01  0.1000000000D+01
 ****
  2 0
 S   3 1.00       0.000000000000
      0.2427660000D+03  0.5986570051D-01
      0.3648510000D+02  0.3529550030D+00
      0.7814490000D+01  0.7065130060D+00
 SP   2 1.00       0.000000000000
      0.5425220000D+01 -0.4133000774D+00  0.2379720162D+00
      0.1149150000D+01  0.1224417267D+01  0.8589530586D+00
 SP   1 1.00       0.000000000000
      0.2832050000D+00  0.1000000000D+01  0.1000000000D+01
 ****

 LdAtmC:  AtmChg=     7.000000     7.000000
 AtZEff=  -4.5500000  -4.5500000
 NEqShl: 
              1            2            3            4            5
     1            1            4            1            4            1
     2            2            5            2            5            2
     3            3            6            3            6            3
     4            4            1            4            1            4
     5            5            2            5            2            5
     6            6            3            6            3            6
              6            7            8
     1            1            4            4
     2            2            5            5
     3            3            6            6
     4            4            1            1
     5            5            2            2
     6            6            3            3
 NEqBas: 
              1            2            3            4            5
     1            1           10            1           10            1
     2            2           11            2           11            2
     3            3          -12           -3           12           -3
     4            4           13           -4          -13            4
     5            5          -14            5          -14            5
     6            6           15            6           15            6
     7            7          -16           -7           16           -7
     8            8           17           -8          -17            8
     9            9          -18            9          -18            9
    10           10            1           10            1           10
    11           11            2           11            2           11
    12           12           -3          -12            3          -12
    13           13            4          -13           -4           13
    14           14           -5           14           -5           14
    15           15            6           15            6           15
    16           16           -7          -16            7          -16
    17           17            8          -17           -8           17
    18           18           -9           18           -9           18
              6            7            8
     1            1           10           10
     2            2           11           11
     3            3           12          -12
     4           -4           13          -13
     5            5          -14          -14
     6            6           15           15
     7            7           16          -16
     8           -8           17          -17
     9            9          -18          -18
    10           10            1            1
    11           11            2            2
    12           12            3           -3
    13          -13            4           -4
    14           14           -5           -5
    15           15            6            6
    16           16            7           -7
    17          -17            8           -8
    18           18           -9           -9
 NEqShl: 
              1            2            3            4            5
     1            1            4            1            4            1
     2            2            5            2            5            2
     3            3            6            3            6            3
     4            4            1            4            1            4
     5            5            2            5            2            5
     6            6            3            6            3            6
              6            7            8
     1            1            4            4
     2            2            5            5
     3            3            6            6
     4            4            1            1
     5            5            2            2
     6            6            3            3
 NEqBas: 
              1            2            3            4            5
     1            1           10            1           10            1
     2            2           11            2           11            2
     3            3          -12           -3           12           -3
     4            4           13           -4          -13            4
     5            5          -14            5          -14            5
     6            6           15            6           15            6
     7            7          -16           -7           16           -7
     8            8           17           -8          -17            8
     9            9          -18            9          -18            9
    10           10            1           10            1           10
    11           11            2           11            2           11
    12           12           -3          -12            3          -12
    13           13            4          -13           -4           13
    14           14           -5           14           -5           14
    15           15            6           15            6           15
    16           16           -7          -16            7          -16
    17           17            8          -17           -8           17
    18           18           -9           18           -9           18
              6            7            8
     1            1           10           10
     2            2           11           11
     3            3           12          -12
     4           -4           13          -13
     5            5          -14          -14
     6            6           15           15
     7            7           16          -16
     8           -8           17          -17
     9            9          -18          -18
    10           10            1            1
    11           11            2            2
    12           12            3           -3
    13          -13            4           -4
    14           14           -5           -5
    15           15            6            6
    16           16            7           -7
    17          -17            8           -8
    18           18           -9           -9
 There are     5 symmetry adapted basis functions of AG  symmetry.
   1         1   1  10  10  10  10   1   1
   2         2   2  11  11  11  11   2   2
   3         5   5 -14 -14 -14 -14   5   5
   4         6   6  15  15  15  15   6   6
   5         9   9 -18 -18 -18 -18   9   9
 There are     0 symmetry adapted basis functions of B1G symmetry.
 There are     2 symmetry adapted basis functions of B2G symmetry.
   6         3   3 -12 -12 -12 -12   3   3
   7         7   7 -16 -16 -16 -16   7   7
 There are     2 symmetry adapted basis functions of B3G symmetry.
   8         4   4 -13 -13 -13 -13   4   4
   9         8   8 -17 -17 -17 -17   8   8
 There are     0 symmetry adapted basis functions of AU  symmetry.
 There are     5 symmetry adapted basis functions of B1U symmetry.
  10         1   1 -10 -10 -10 -10   1   1
  11         2   2 -11 -11 -11 -11   2   2
  12         5   5  14  14  14  14   5   5
  13         6   6 -15 -15 -15 -15   6   6
  14         9   9  18  18  18  18   9   9
 There are     2 symmetry adapted basis functions of B2U symmetry.
  15         4   4  13  13  13  13   4   4
  16         8   8  17  17  17  17   8   8
 There are     2 symmetry adapted basis functions of B3U symmetry.
  17         3   3  12  12  12  12   3   3
  18         7   7  16  16  16  16   7   7
 Order= 1 3 2 4 8 7 6 5
 Reordered character table:
              1            2            3            4            5
     1            1            1            1            1            1
     2            1           -1            1           -1            1
     3            1            1           -1           -1            1
     4            1           -1           -1            1            1
     5            1           -1           -1            1           -1
     6            1           -1            1           -1           -1
     7            1            1           -1           -1           -1
     8            1            1            1            1           -1
              6            7            8
     1            1            1            1
     2           -1            1           -1
     3            1           -1           -1
     4           -1           -1            1
     5            1            1           -1
     6            1           -1            1
     7           -1            1            1
     8           -1           -1           -1
 Integral buffers will be    131072 words long.
 Raffenetti 2 integral format.
 Two-electron integral symmetry is turned on.
    18 basis functions,    30 primitive gaussians,    18 cartesian basis functions
     7 alpha electrons        7 beta electrons
       nuclear repulsion energy        23.6218303787 Hartrees.
 IExCor= 402 DFT=T Ex=B+HF Corr=LYP ExCW=0 ScaHFX=  0.200000
 ScaDFX=  0.800000  0.720000  1.000000  0.810000
 IRadAn=      0 IRanWt=     -1 IRanGd=            0 ICorTp=0
 NAtoms=    2 NActive=    2 NUniq=    1 SFac= 5.66D+00 NAtFMM=   60 Big=F
 Leave Link  301 at Sun Jun 26 04:53:38 2011, MaxMem=    6291456 cpu:       0.0
 (Enter /fougeron/home/gauss3/g03/l302.exe)
 NPDir=0 NMtPBC=     1 NCelOv=     1 NCel=       1 NClECP=     1 NCelD=      1
         NCelK=      1 NCelE2=     1 NClLst=     1 CellRange=     0.0.
 One-electron integrals computed using PRISM.
 One-electron integral symmetry used in STVInt
 Entering OneElI...
 OneElI was handed  6131023 working-precision words.
 Calculate overlap and kinetic energy integrals
    NBasis =  18  MinDer = 0  MaxDer = 0
 Requested accuracy = 0.1000D-12
 Symmetry will be used
 PrsmSu:  NPrtUS=   1 ThrOK=F
 PRISM was handed     6128217 working-precision words and    21 shell-pairs
 *** Overlap *** 
                1             2             3             4             5
      1  0.100000D+01
      2  0.194907D+00  0.100000D+01
      3  0.000000D+00  0.000000D+00  0.100000D+01
      4  0.000000D+00  0.000000D+00  0.000000D+00  0.100000D+01
      5  0.000000D+00  0.000000D+00  0.000000D+00  0.000000D+00  0.100000D+01
      6  0.184225D+00  0.752192D+00  0.000000D+00  0.000000D+00  0.000000D+00
      7  0.000000D+00  0.000000D+00  0.516001D+00  0.000000D+00  0.000000D+00
      8  0.000000D+00  0.000000D+00  0.000000D+00  0.516001D+00  0.000000D+00
      9  0.000000D+00  0.000000D+00  0.000000D+00  0.000000D+00  0.516001D+00
     10  0.000000D+00  0.709768D-02  0.000000D+00  0.000000D+00 -0.195375D-01
     11  0.709768D-02  0.115188D+00  0.000000D+00  0.000000D+00 -0.188276D+00
     12  0.000000D+00  0.000000D+00  0.657343D-01  0.000000D+00  0.000000D+00
     13  0.000000D+00  0.000000D+00  0.000000D+00  0.657343D-01  0.000000D+00
     14  0.195375D-01  0.188276D+00  0.000000D+00  0.000000D+00 -0.270486D+00
     15  0.565622D-01  0.290313D+00  0.000000D+00  0.000000D+00 -0.212254D+00
     16  0.000000D+00  0.000000D+00  0.192275D+00  0.000000D+00  0.000000D+00
     17  0.000000D+00  0.000000D+00  0.000000D+00  0.192275D+00  0.000000D+00
     18  0.120999D+00  0.502080D+00  0.000000D+00  0.000000D+00 -0.187041D+00
                6             7             8             9            10
      6  0.100000D+01
      7  0.000000D+00  0.100000D+01
      8  0.000000D+00  0.000000D+00  0.100000D+01
      9  0.000000D+00  0.000000D+00  0.000000D+00  0.100000D+01
     10  0.565622D-01  0.000000D+00  0.000000D+00 -0.120999D+00  0.100000D+01
     11  0.290313D+00  0.000000D+00  0.000000D+00 -0.502080D+00  0.194907D+00
     12  0.000000D+00  0.192275D+00  0.000000D+00  0.000000D+00  0.000000D+00
     13  0.000000D+00  0.000000D+00  0.192275D+00  0.000000D+00  0.000000D+00
     14  0.212254D+00  0.000000D+00  0.000000D+00 -0.187041D+00  0.000000D+00
     15  0.543728D+00  0.000000D+00  0.000000D+00 -0.600225D+00  0.184225D+00
     16  0.000000D+00  0.543728D+00  0.000000D+00  0.000000D+00  0.000000D+00
     17  0.000000D+00  0.000000D+00  0.543728D+00  0.000000D+00  0.000000D+00
     18  0.600225D+00  0.000000D+00  0.000000D+00 -0.118866D+00  0.000000D+00
               11            12            13            14            15
     11  0.100000D+01
     12  0.000000D+00  0.100000D+01
     13  0.000000D+00  0.000000D+00  0.100000D+01
     14  0.000000D+00  0.000000D+00  0.000000D+00  0.100000D+01
     15  0.752192D+00  0.000000D+00  0.000000D+00  0.000000D+00  0.100000D+01
     16  0.000000D+00  0.516001D+00  0.000000D+00  0.000000D+00  0.000000D+00
     17  0.000000D+00  0.000000D+00  0.516001D+00  0.000000D+00  0.000000D+00
     18  0.000000D+00  0.000000D+00  0.000000D+00  0.516001D+00  0.000000D+00
               16            17            18
     16  0.100000D+01
     17  0.000000D+00  0.100000D+01
     18  0.000000D+00  0.000000D+00  0.100000D+01
 *** Kinetic Energy *** 
                1             2             3             4             5
      1  0.230024D+02
      2 -0.220986D+01  0.206818D+01
      3  0.000000D+00  0.000000D+00  0.386239D+01
      4  0.000000D+00  0.000000D+00  0.000000D+00  0.386239D+01
      5  0.000000D+00  0.000000D+00  0.000000D+00  0.000000D+00  0.386239D+01
      6  0.151675D+00  0.497832D+00  0.000000D+00  0.000000D+00  0.000000D+00
      7  0.000000D+00  0.000000D+00  0.592405D+00  0.000000D+00  0.000000D+00
      8  0.000000D+00  0.000000D+00  0.000000D+00  0.592405D+00  0.000000D+00
      9  0.000000D+00  0.000000D+00  0.000000D+00  0.000000D+00  0.592405D+00
     10 -0.298245D-05 -0.412442D-01  0.000000D+00  0.000000D+00  0.743531D-01
     11 -0.412442D-01 -0.860250D-01  0.000000D+00  0.000000D+00 -0.336571D-01
     12  0.000000D+00  0.000000D+00 -0.846002D-02  0.000000D+00  0.000000D+00
     13  0.000000D+00  0.000000D+00  0.000000D+00 -0.846002D-02  0.000000D+00
     14 -0.743531D-01  0.336571D-01  0.000000D+00  0.000000D+00 -0.340301D+00
     15  0.990657D-02  0.708893D-01  0.000000D+00  0.000000D+00 -0.147146D+00
     16  0.000000D+00  0.000000D+00  0.133295D+00  0.000000D+00  0.000000D+00
     17  0.000000D+00  0.000000D+00  0.000000D+00  0.133295D+00  0.000000D+00
     18  0.875985D-01  0.344946D+00  0.000000D+00  0.000000D+00 -0.303938D+00
                6             7             8             9            10
      6  0.424807D+00
      7  0.000000D+00  0.708012D+00
      8  0.000000D+00  0.000000D+00  0.708012D+00
      9  0.000000D+00  0.000000D+00  0.000000D+00  0.708012D+00
     10  0.990657D-02  0.000000D+00  0.000000D+00 -0.875985D-01  0.230024D+02
     11  0.708893D-01  0.000000D+00  0.000000D+00 -0.344946D+00 -0.220986D+01
     12  0.000000D+00  0.133295D+00  0.000000D+00  0.000000D+00  0.000000D+00
     13  0.000000D+00  0.000000D+00  0.133295D+00  0.000000D+00  0.000000D+00
     14  0.147146D+00  0.000000D+00  0.000000D+00 -0.303938D+00  0.000000D+00
     15  0.137155D+00  0.000000D+00  0.000000D+00 -0.321393D+00  0.151675D+00
     16  0.000000D+00  0.291141D+00  0.000000D+00  0.000000D+00  0.000000D+00
     17  0.000000D+00  0.000000D+00  0.291141D+00  0.000000D+00  0.000000D+00
     18  0.321393D+00  0.000000D+00  0.000000D+00 -0.251297D+00  0.000000D+00
               11            12            13            14            15
     11  0.206818D+01
     12  0.000000D+00  0.386239D+01
     13  0.000000D+00  0.000000D+00  0.386239D+01
     14  0.000000D+00  0.000000D+00  0.000000D+00  0.386239D+01
     15  0.497832D+00  0.000000D+00  0.000000D+00  0.000000D+00  0.424807D+00
     16  0.000000D+00  0.592405D+00  0.000000D+00  0.000000D+00  0.000000D+00
     17  0.000000D+00  0.000000D+00  0.592405D+00  0.000000D+00  0.000000D+00
     18  0.000000D+00  0.000000D+00  0.000000D+00  0.592405D+00  0.000000D+00
               16            17            18
     16  0.708012D+00
     17  0.000000D+00  0.708012D+00
     18  0.000000D+00  0.000000D+00  0.708012D+00
 Entering OneElI...
 OneElI was handed  6131023 working-precision words.
 Calculate potential energy integrals
    NBasis =  18  MinDer = 0  MaxDer = 0
 Requested accuracy = 0.1000D-12
 Symmetry will be used
 PrsmSu:  NPrtUS=   1 ThrOK=F
 PRISM was handed     6128187 working-precision words and    21 shell-pairs
 ***** Potential Energy ***** 
                1             2             3             4             5
      1  0.506968D+02
      2  0.375074D+01  0.122014D+02
      3  0.000000D+00  0.000000D+00  0.128820D+02
      4  0.000000D+00  0.000000D+00  0.000000D+00  0.128820D+02
      5 -0.118555D+00 -0.812357D+00  0.000000D+00  0.000000D+00  0.133021D+02
      6  0.552581D+01  0.853355D+01  0.000000D+00  0.000000D+00 -0.783968D+00
      7  0.000000D+00  0.000000D+00  0.504381D+01  0.000000D+00  0.000000D+00
      8  0.000000D+00  0.000000D+00  0.000000D+00  0.504381D+01  0.000000D+00
      9 -0.174341D-01 -0.504849D+00  0.000000D+00  0.000000D+00  0.543718D+01
     10  0.000000D+00  0.187441D+00  0.000000D+00  0.000000D+00 -0.535826D+00
     11  0.187441D+00  0.143930D+01  0.000000D+00  0.000000D+00 -0.238377D+01
     12  0.000000D+00  0.000000D+00  0.732269D+00  0.000000D+00  0.000000D+00
     13  0.000000D+00  0.000000D+00  0.000000D+00  0.732269D+00  0.000000D+00
     14  0.535826D+00  0.238377D+01  0.000000D+00  0.000000D+00 -0.348489D+01
     15  0.167942D+01  0.341552D+01  0.000000D+00  0.000000D+00 -0.265378D+01
     16  0.000000D+00  0.000000D+00  0.192162D+01  0.000000D+00  0.000000D+00
     17  0.000000D+00  0.000000D+00  0.000000D+00  0.192162D+01  0.000000D+00
     18  0.362861D+01  0.586124D+01  0.000000D+00  0.000000D+00 -0.251173D+01
                6             7             8             9            10
      6  0.922711D+01
      7  0.000000D+00  0.667876D+01
      8  0.000000D+00  0.000000D+00  0.667876D+01
      9 -0.125146D+01  0.000000D+00  0.000000D+00  0.785969D+01
     10  0.167942D+01  0.000000D+00  0.000000D+00 -0.362861D+01  0.506968D+02
     11  0.341552D+01  0.000000D+00  0.000000D+00 -0.586124D+01  0.375074D+01
     12  0.000000D+00  0.192162D+01  0.000000D+00  0.000000D+00  0.000000D+00
     13  0.000000D+00  0.000000D+00  0.192162D+01  0.000000D+00  0.000000D+00
     14  0.265378D+01  0.000000D+00  0.000000D+00 -0.251173D+01  0.118555D+00
     15  0.536041D+01  0.000000D+00  0.000000D+00 -0.591740D+01  0.552581D+01
     16  0.000000D+00  0.384597D+01  0.000000D+00  0.000000D+00  0.000000D+00
     17  0.000000D+00  0.000000D+00  0.384597D+01  0.000000D+00  0.000000D+00
     18  0.591740D+01  0.000000D+00  0.000000D+00 -0.165785D+01  0.174341D-01
               11            12            13            14            15
     11  0.122014D+02
     12  0.000000D+00  0.128820D+02
     13  0.000000D+00  0.000000D+00  0.128820D+02
     14  0.812357D+00  0.000000D+00  0.000000D+00  0.133021D+02
     15  0.853355D+01  0.000000D+00  0.000000D+00  0.783968D+00  0.922711D+01
     16  0.000000D+00  0.504381D+01  0.000000D+00  0.000000D+00  0.000000D+00
     17  0.000000D+00  0.000000D+00  0.504381D+01  0.000000D+00  0.000000D+00
     18  0.504849D+00  0.000000D+00  0.000000D+00  0.543718D+01  0.125146D+01
               16            17            18
     16  0.667876D+01
     17  0.000000D+00  0.667876D+01
     18  0.000000D+00  0.000000D+00  0.785969D+01
 ****** Core Hamiltonian ****** 
                1             2             3             4             5
      1 -0.276944D+02
      2 -0.596060D+01 -0.101332D+02
      3  0.000000D+00  0.000000D+00 -0.901964D+01
      4  0.000000D+00  0.000000D+00  0.000000D+00 -0.901964D+01
      5  0.118555D+00  0.812357D+00  0.000000D+00  0.000000D+00 -0.943968D+01
      6 -0.537413D+01 -0.803572D+01  0.000000D+00  0.000000D+00  0.783968D+00
      7  0.000000D+00  0.000000D+00 -0.445140D+01  0.000000D+00  0.000000D+00
      8  0.000000D+00  0.000000D+00  0.000000D+00 -0.445140D+01  0.000000D+00
      9  0.174341D-01  0.504849D+00  0.000000D+00  0.000000D+00 -0.484477D+01
     10 -0.331887D-05 -0.228685D+00  0.000000D+00  0.000000D+00  0.610179D+00
     11 -0.228685D+00 -0.152533D+01  0.000000D+00  0.000000D+00  0.235011D+01
     12  0.000000D+00  0.000000D+00 -0.740729D+00  0.000000D+00  0.000000D+00
     13  0.000000D+00  0.000000D+00  0.000000D+00 -0.740729D+00  0.000000D+00
     14 -0.610179D+00 -0.235011D+01  0.000000D+00  0.000000D+00  0.314459D+01
     15 -0.166951D+01 -0.334463D+01  0.000000D+00  0.000000D+00  0.250664D+01
     16  0.000000D+00  0.000000D+00 -0.178833D+01  0.000000D+00  0.000000D+00
     17  0.000000D+00  0.000000D+00  0.000000D+00 -0.178833D+01  0.000000D+00
     18 -0.354101D+01 -0.551630D+01  0.000000D+00  0.000000D+00  0.220779D+01
                6             7             8             9            10
      6 -0.880230D+01
      7  0.000000D+00 -0.597075D+01
      8  0.000000D+00  0.000000D+00 -0.597075D+01
      9  0.125146D+01  0.000000D+00  0.000000D+00 -0.715168D+01
     10 -0.166951D+01  0.000000D+00  0.000000D+00  0.354101D+01 -0.276944D+02
     11 -0.334463D+01  0.000000D+00  0.000000D+00  0.551630D+01 -0.596060D+01
     12  0.000000D+00 -0.178833D+01  0.000000D+00  0.000000D+00  0.000000D+00
     13  0.000000D+00  0.000000D+00 -0.178833D+01  0.000000D+00  0.000000D+00
     14 -0.250664D+01  0.000000D+00  0.000000D+00  0.220779D+01 -0.118555D+00
     15 -0.522326D+01  0.000000D+00  0.000000D+00  0.559601D+01 -0.537413D+01
     16  0.000000D+00 -0.355482D+01  0.000000D+00  0.000000D+00  0.000000D+00
     17  0.000000D+00  0.000000D+00 -0.355482D+01  0.000000D+00  0.000000D+00
     18 -0.559601D+01  0.000000D+00  0.000000D+00  0.140656D+01 -0.174341D-01
               11            12            13            14            15
     11 -0.101332D+02
     12  0.000000D+00 -0.901964D+01
     13  0.000000D+00  0.000000D+00 -0.901964D+01
     14 -0.812357D+00  0.000000D+00  0.000000D+00 -0.943968D+01
     15 -0.803572D+01  0.000000D+00  0.000000D+00 -0.783968D+00 -0.880230D+01
     16  0.000000D+00 -0.445140D+01  0.000000D+00  0.000000D+00  0.000000D+00
     17  0.000000D+00  0.000000D+00 -0.445140D+01  0.000000D+00  0.000000D+00
     18 -0.504849D+00  0.000000D+00  0.000000D+00 -0.484477D+01 -0.125146D+01
               16            17            18
     16 -0.597075D+01
     17  0.000000D+00 -0.597075D+01
     18  0.000000D+00  0.000000D+00 -0.715168D+01
 SVDSVc IR=1
 SVDSVc V= 1.21D+01 5.79D+00 3.71D+00 1.57D+00 1.06D+00
 SVDSVc IR=2
 SVDSVc V=
 SVDSVc IR=3
 SVDSVc V= 4.39D+00 1.17D+00
 SVDSVc IR=4
 SVDSVc V= 4.39D+00 1.17D+00
 SVDSVc IR=5
 SVDSVc V=
 SVDSVc IR=6
 SVDSVc V= 8.05D+00 3.84D+00 2.38D+00 1.47D+00 6.60D-02
 SVDSVc IR=7
 SVDSVc V= 8.21D+00 2.23D+00
 SVDSVc IR=8
 SVDSVc V= 8.21D+00 2.23D+00
 TstOVc:  Largest diagonal error= 1.07D-14 IB=6 I=   14.
 TstOVc:  Largest same sym error= 3.97D-15 IB=6 I=   14 J=   13.
 TstOVc:  Largest diff sym error= 1.10D-15 IB=6 JB=1 I=   14 J=    5.
 Orthogonalized basis functions: 
               1            2            3            4            5
      1 0.641355D-01 0.117918D+00 0.709689D+00 0.254348D-01-0.884719D-02
      2 0.209721D+00 0.175146D+00-0.105560D+00 0.154731D+00 0.106982D+01
      3 0.000000D+00 0.000000D+00 0.000000D+00 0.000000D+00 0.000000D+00
      4 0.000000D+00 0.000000D+00 0.000000D+00 0.000000D+00 0.000000D+00
      5-0.130546D+00 0.444457D+00-0.672758D-01-0.634503D+00 0.649554D-02
      6 0.255094D+00 0.224145D+00-0.139229D+00 0.204638D+00-0.861498D+00
      7 0.000000D+00 0.000000D+00 0.000000D+00 0.000000D+00 0.000000D+00
      8 0.000000D+00 0.000000D+00 0.000000D+00 0.000000D+00 0.000000D+00
      9-0.188847D+00 0.230081D+00-0.177693D-01 0.895516D+00 0.168699D-01
     10 0.641355D-01 0.117918D+00 0.709689D+00 0.254348D-01-0.884719D-02
     11 0.209721D+00 0.175146D+00-0.105560D+00 0.154731D+00 0.106982D+01
     12 0.000000D+00 0.000000D+00 0.000000D+00 0.000000D+00 0.000000D+00
     13 0.000000D+00 0.000000D+00 0.000000D+00 0.000000D+00 0.000000D+00
     14 0.130546D+00-0.444457D+00 0.672758D-01 0.634503D+00-0.649554D-02
     15 0.255094D+00 0.224145D+00-0.139229D+00 0.204638D+00-0.861498D+00
     16 0.000000D+00 0.000000D+00 0.000000D+00 0.000000D+00 0.000000D+00
     17 0.000000D+00 0.000000D+00 0.000000D+00 0.000000D+00 0.000000D+00
     18 0.188847D+00-0.230081D+00 0.177693D-01-0.895516D+00-0.168699D-01
               6            7            8            9           10
      1 0.000000D+00 0.000000D+00 0.000000D+00 0.000000D+00 0.116746D+00
      2 0.000000D+00 0.000000D+00 0.000000D+00 0.000000D+00 0.269361D+00
      3 0.602522D+00-0.588734D+00 0.000000D+00 0.000000D+00 0.000000D+00
      4 0.000000D+00 0.000000D+00 0.602522D+00-0.588734D+00 0.000000D+00
      5 0.000000D+00 0.000000D+00 0.000000D+00 0.000000D+00 0.154527D+00
      6 0.000000D+00 0.000000D+00 0.000000D+00 0.000000D+00 0.224927D+00
      7 0.304109D+00 0.116644D+01 0.000000D+00 0.000000D+00 0.000000D+00
      8 0.000000D+00 0.000000D+00 0.304109D+00 0.116644D+01 0.000000D+00
      9 0.000000D+00 0.000000D+00 0.000000D+00 0.000000D+00 0.296342D+00
     10 0.000000D+00 0.000000D+00 0.000000D+00 0.000000D+00-0.116746D+00
     11 0.000000D+00 0.000000D+00 0.000000D+00 0.000000D+00-0.269361D+00
     12-0.602522D+00 0.588734D+00 0.000000D+00 0.000000D+00 0.000000D+00
     13 0.000000D+00 0.000000D+00-0.602522D+00 0.588734D+00 0.000000D+00
     14 0.000000D+00 0.000000D+00 0.000000D+00 0.000000D+00 0.154527D+00
     15 0.000000D+00 0.000000D+00 0.000000D+00 0.000000D+00-0.224927D+00
     16-0.304109D+00-0.116644D+01 0.000000D+00 0.000000D+00 0.000000D+00
     17 0.000000D+00 0.000000D+00-0.304109D+00-0.116644D+01 0.000000D+00
     18 0.000000D+00 0.000000D+00 0.000000D+00 0.000000D+00 0.296342D+00
              11           12           13           14           15
      1 0.682661D+00 0.196803D+00-0.624379D-01-0.987714D-01 0.000000D+00
      2 0.341530D-02-0.414780D+00 0.805444D+00-0.898451D+00 0.000000D+00
      3 0.000000D+00 0.000000D+00 0.000000D+00 0.000000D+00 0.000000D+00
      4 0.000000D+00 0.000000D+00 0.000000D+00 0.000000D+00 0.287871D+00
      5-0.181812D+00 0.785984D+00 0.379349D+00 0.119511D+00 0.000000D+00
      6-0.585548D-01-0.110994D+00-0.269395D+00 0.467743D+01 0.000000D+00
      7 0.000000D+00 0.000000D+00 0.000000D+00 0.000000D+00 0.000000D+00
      8 0.000000D+00 0.000000D+00 0.000000D+00 0.000000D+00 0.400956D+00
      9-0.132794D+00-0.261199D-01-0.700850D+00-0.275697D+01 0.000000D+00
     10-0.682661D+00-0.196803D+00 0.624379D-01 0.987714D-01 0.000000D+00
     11-0.341530D-02 0.414780D+00-0.805444D+00 0.898451D+00 0.000000D+00
     12 0.000000D+00 0.000000D+00 0.000000D+00 0.000000D+00 0.000000D+00
     13 0.000000D+00 0.000000D+00 0.000000D+00 0.000000D+00 0.287871D+00
     14-0.181812D+00 0.785984D+00 0.379349D+00 0.119511D+00 0.000000D+00
     15 0.585548D-01 0.110994D+00 0.269395D+00-0.467743D+01 0.000000D+00
     16 0.000000D+00 0.000000D+00 0.000000D+00 0.000000D+00 0.000000D+00
     17 0.000000D+00 0.000000D+00 0.000000D+00 0.000000D+00 0.400956D+00
     18-0.132794D+00-0.261199D-01-0.700850D+00-0.275697D+01 0.000000D+00
              16           17           18
      1 0.000000D+00 0.000000D+00 0.000000D+00
      2 0.000000D+00 0.000000D+00 0.000000D+00
      3 0.000000D+00 0.287871D+00 0.769482D+00
      4 0.769482D+00 0.000000D+00 0.000000D+00
      5 0.000000D+00 0.000000D+00 0.000000D+00
      6 0.000000D+00 0.000000D+00 0.000000D+00
      7 0.000000D+00 0.400956D+00-0.552459D+00
      8-0.552459D+00 0.000000D+00 0.000000D+00
      9 0.000000D+00 0.000000D+00 0.000000D+00
     10 0.000000D+00 0.000000D+00 0.000000D+00
     11 0.000000D+00 0.000000D+00 0.000000D+00
     12 0.000000D+00 0.287871D+00 0.769482D+00
     13 0.769482D+00 0.000000D+00 0.000000D+00
     14 0.000000D+00 0.000000D+00 0.000000D+00
     15 0.000000D+00 0.000000D+00 0.000000D+00
     16 0.000000D+00 0.400956D+00-0.552459D+00
     17-0.552459D+00 0.000000D+00 0.000000D+00
     18 0.000000D+00 0.000000D+00 0.000000D+00
 NBasis=    18 RedAO= T  NBF=     5     0     2     2     0     5     2     2
 NBsUse=    18 1.00D-06 NBFU=     5     0     2     2     0     5     2     2
 Precomputing XC quadrature grid using
 IXCGrd= 2 IRadAn=           0 IRanWt=          -1 IRanGd=           0.
 Pruned (  75, 302) grid will be used in CalDFT.
 Pruned (  75, 302) grid will be used in CalDFT.
 At   1 B   1: 100.0% Sh 100.0 % Bf    1 runs, min   18 max   18 av   18.0
 Atom   1 batch    1 overlaps   2 atoms and    6 shells. NGrid=        26
 At   1 B   2: 100.0% Sh 100.0 % Bf    1 runs, min   18 max   18 av   18.0
 Atom   1 batch    2 overlaps   2 atoms and    6 shells. NGrid=        26
 At   1 B   3: 100.0% Sh 100.0 % Bf    1 runs, min   18 max   18 av   18.0
 Atom   1 batch    3 overlaps   2 atoms and    6 shells. NGrid=        26
 At   1 B   4: 100.0% Sh 100.0 % Bf    1 runs, min   18 max   18 av   18.0
 Atom   1 batch    4 overlaps   2 atoms and    6 shells. NGrid=        26
 At   1 B   5: 100.0% Sh 100.0 % Bf    1 runs, min   18 max   18 av   18.0
 Atom   1 batch    5 overlaps   2 atoms and    6 shells. NGrid=        26
 At   1 B   6: 100.0% Sh 100.0 % Bf    1 runs, min   18 max   18 av   18.0
 Atom   1 batch    6 overlaps   2 atoms and    6 shells. NGrid=        26
 At   1 B   7: 100.0% Sh 100.0 % Bf    1 runs, min   18 max   18 av   18.0
 Atom   1 batch    7 overlaps   2 atoms and    6 shells. NGrid=        26
 At   1 B   8: 100.0% Sh 100.0 % Bf    1 runs, min   18 max   18 av   18.0
 Atom   1 batch    8 overlaps   2 atoms and    6 shells. NGrid=        26
 At   1 B   9: 100.0% Sh 100.0 % Bf    1 runs, min   18 max   18 av   18.0
 Atom   1 batch    9 overlaps   2 atoms and    6 shells. NGrid=        26
 At   1 B  10: 100.0% Sh 100.0 % Bf    1 runs, min   18 max   18 av   18.0
 Atom   1 batch   10 overlaps   2 atoms and    6 shells. NGrid=        26
 At   1 B  11: 100.0% Sh 100.0 % Bf    1 runs, min   18 max   18 av   18.0
 Atom   1 batch   11 overlaps   2 atoms and    6 shells. NGrid=        26
 At   1 B  12: 100.0% Sh 100.0 % Bf    1 runs, min   18 max   18 av   18.0
 Atom   1 batch   12 overlaps   2 atoms and    6 shells. NGrid=        26
 At   1 B  13: 100.0% Sh 100.0 % Bf    1 runs, min   18 max   18 av   18.0
 Atom   1 batch   13 overlaps   2 atoms and    6 shells. NGrid=        26
 At   1 B  14: 100.0% Sh 100.0 % Bf    1 runs, min   18 max   18 av   18.0
 Atom   1 batch   14 overlaps   2 atoms and    6 shells. NGrid=        26
 At   1 B  15: 100.0% Sh 100.0 % Bf    1 runs, min   18 max   18 av   18.0
 Atom   1 batch   15 overlaps   2 atoms and    6 shells. NGrid=        26
 At   1 B  16: 100.0% Sh 100.0 % Bf    1 runs, min   18 max   18 av   18.0
 Atom   1 batch   16 overlaps   2 atoms and    6 shells. NGrid=        26
 At   1 B  17: 100.0% Sh 100.0 % Bf    1 runs, min   18 max   18 av   18.0
 Atom   1 batch   17 overlaps   2 atoms and    6 shells. NGrid=        26
 At   1 B  18: 100.0% Sh 100.0 % Bf    1 runs, min   18 max   18 av   18.0
 Atom   1 batch   18 overlaps   2 atoms and    6 shells. NGrid=        26
 At   1 B  19: 100.0% Sh 100.0 % Bf    1 runs, min   18 max   18 av   18.0
 Atom   1 batch   19 overlaps   2 atoms and    6 shells. NGrid=        26
 At   1 B  20: 100.0% Sh 100.0 % Bf    1 runs, min   18 max   18 av   18.0
 Atom   1 batch   20 overlaps   2 atoms and    6 shells. NGrid=        26
 At   1 B  21: 100.0% Sh 100.0 % Bf    1 runs, min   18 max   18 av   18.0
 Atom   1 batch   21 overlaps   2 atoms and    6 shells. NGrid=        26
 At   1 B  22: 100.0% Sh 100.0 % Bf    1 runs, min   18 max   18 av   18.0
 Atom   1 batch   22 overlaps   2 atoms and    6 shells. NGrid=        26
 At   1 B  23: 100.0% Sh 100.0 % Bf    1 runs, min   18 max   18 av   18.0
 Atom   1 batch   23 overlaps   2 atoms and    6 shells. NGrid=        86
 At   1 B  24: 100.0% Sh 100.0 % Bf    1 runs, min   18 max   18 av   18.0
 Atom   1 batch   24 overlaps   2 atoms and    6 shells. NGrid=        86
 At   1 B  25: 100.0% Sh 100.0 % Bf    1 runs, min   18 max   18 av   18.0
 Atom   1 batch   25 overlaps   2 atoms and    6 shells. NGrid=        86
 At   1 B  26: 100.0% Sh 100.0 % Bf    1 runs, min   18 max   18 av   18.0
 Atom   1 batch   26 overlaps   2 atoms and    6 shells. NGrid=        86
 At   1 B  27: 100.0% Sh 100.0 % Bf    1 runs, min   18 max   18 av   18.0
 Atom   1 batch   27 overlaps   2 atoms and    6 shells. NGrid=        86
 At   1 B  28: 100.0% Sh 100.0 % Bf    1 runs, min   18 max   18 av   18.0
 Atom   1 batch   28 overlaps   2 atoms and    6 shells. NGrid=        86
 At   1 B  29: 100.0% Sh 100.0 % Bf    1 runs, min   18 max   18 av   18.0
 Atom   1 batch   29 overlaps   2 atoms and    6 shells. NGrid=        86
 At   1 B  30: 100.0% Sh 100.0 % Bf    1 runs, min   18 max   18 av   18.0
 Atom   1 batch   30 overlaps   2 atoms and    6 shells. NGrid=        86
 At   1 B  31: 100.0% Sh 100.0 % Bf    1 runs, min   18 max   18 av   18.0
 Atom   1 batch   31 overlaps   2 atoms and    6 shells. NGrid=        86
 At   1 B  32: 100.0% Sh 100.0 % Bf    1 runs, min   18 max   18 av   18.0
 Atom   1 batch   32 overlaps   2 atoms and    6 shells. NGrid=       146
 At   1 B  33: 100.0% Sh 100.0 % Bf    1 runs, min   18 max   18 av   18.0
 Atom   1 batch   33 overlaps   2 atoms and    6 shells. NGrid=       146
 At   1 B  34: 100.0% Sh 100.0 % Bf    1 runs, min   18 max   18 av   18.0
 Atom   1 batch   34 overlaps   2 atoms and    6 shells. NGrid=       146
 At   1 B  35: 100.0% Sh 100.0 % Bf    1 runs, min   18 max   18 av   18.0
 Atom   1 batch   35 overlaps   2 atoms and    6 shells. NGrid=       146
 At   1 B  36: 100.0% Sh 100.0 % Bf    1 runs, min   18 max   18 av   18.0
 Atom   1 batch   36 overlaps   2 atoms and    6 shells. NGrid=       146
 At   1 B  37: 100.0% Sh 100.0 % Bf    1 runs, min   18 max   18 av   18.0
 Atom   1 batch   37 overlaps   2 atoms and    6 shells. NGrid=       302
 At   1 B  38: 100.0% Sh 100.0 % Bf    1 runs, min   18 max   18 av   18.0
 Atom   1 batch   38 overlaps   2 atoms and    6 shells. NGrid=       302
 At   1 B  39: 100.0% Sh 100.0 % Bf    1 runs, min   18 max   18 av   18.0
 Atom   1 batch   39 overlaps   2 atoms and    6 shells. NGrid=       302
 At   1 B  40: 100.0% Sh 100.0 % Bf    1 runs, min   18 max   18 av   18.0
 Atom   1 batch   40 overlaps   2 atoms and    6 shells. NGrid=       302
 At   1 B  41: 100.0% Sh 100.0 % Bf    1 runs, min   18 max   18 av   18.0
 Atom   1 batch   41 overlaps   2 atoms and    6 shells. NGrid=       302
 At   1 B  42: 100.0% Sh 100.0 % Bf    1 runs, min   18 max   18 av   18.0
 Atom   1 batch   42 overlaps   2 atoms and    6 shells. NGrid=       302
 At   1 B  43: 100.0% Sh 100.0 % Bf    1 runs, min   18 max   18 av   18.0
 Atom   1 batch   43 overlaps   2 atoms and    6 shells. NGrid=       302
 At   1 B  44: 100.0% Sh 100.0 % Bf    1 runs, min   18 max   18 av   18.0
 Atom   1 batch   44 overlaps   2 atoms and    6 shells. NGrid=       302
 At   1 B  45: 100.0% Sh 100.0 % Bf    1 runs, min   18 max   18 av   18.0
 Atom   1 batch   45 overlaps   2 atoms and    6 shells. NGrid=       302
 At   1 B  46:  83.3% Sh  94.4 % Bf    2 runs, min    4 max   13 av    8.5
 Atom   1 batch   46 overlaps   2 atoms and    5 shells. NGrid=       302
 At   1 B  47:  83.3% Sh  94.4 % Bf    2 runs, min    4 max   13 av    8.5
 Atom   1 batch   47 overlaps   2 atoms and    5 shells. NGrid=       302
 At   1 B  48:  83.3% Sh  94.4 % Bf    2 runs, min    4 max   13 av    8.5
 Atom   1 batch   48 overlaps   2 atoms and    5 shells. NGrid=       302
 At   1 B  49:  83.3% Sh  94.4 % Bf    2 runs, min    4 max   13 av    8.5
 Atom   1 batch   49 overlaps   2 atoms and    5 shells. NGrid=       302
 At   1 B  50:  83.3% Sh  94.4 % Bf    2 runs, min    4 max   13 av    8.5
 Atom   1 batch   50 overlaps   2 atoms and    5 shells. NGrid=       146
 At   1 B  51:  83.3% Sh  94.4 % Bf    2 runs, min    4 max   13 av    8.5
 Atom   1 batch   51 overlaps   2 atoms and    5 shells. NGrid=       146
 At   1 B  52:  66.7% Sh  88.9 % Bf    3 runs, min    4 max    8 av    5.3
 Atom   1 batch   52 overlaps   2 atoms and    4 shells. NGrid=       146
 At   1 B  53:  66.7% Sh  88.9 % Bf    3 runs, min    4 max    8 av    5.3
 Atom   1 batch   53 overlaps   2 atoms and    4 shells. NGrid=       146
 At   1 B  54:  50.0% Sh  66.7 % Bf    2 runs, min    4 max    8 av    6.0
 Atom   1 batch   54 overlaps   2 atoms and    3 shells. NGrid=       146
 At   1 B  55:  50.0% Sh  66.7 % Bf    2 runs, min    4 max    8 av    6.0
 Atom   1 batch   55 overlaps   2 atoms and    3 shells. NGrid=       146
 At   1 B  56:  33.3% Sh  44.4 % Bf    2 runs, min    4 max    4 av    4.0
 Atom   1 batch   56 overlaps   2 atoms and    2 shells. NGrid=       146
 At   1 B  57:  33.3% Sh  44.4 % Bf    2 runs, min    4 max    4 av    4.0
 Atom   1 batch   57 overlaps   2 atoms and    2 shells. NGrid=       146
 At   1 B  58:  33.3% Sh  44.4 % Bf    2 runs, min    4 max    4 av    4.0
 Atom   1 batch   58 overlaps   2 atoms and    2 shells. NGrid=       146
 At   1 B  59:  16.7% Sh  22.2 % Bf    1 runs, min    4 max    4 av    4.0
 Atom   1 batch   59 overlaps   2 atoms and    1 shells. NGrid=       146
 At   2 B   1: 100.0% Sh 100.0 % Bf    1 runs, min   18 max   18 av   18.0
 Atom   2 batch    1 overlaps   2 atoms and    6 shells. NGrid=        26
 At   2 B   2: 100.0% Sh 100.0 % Bf    1 runs, min   18 max   18 av   18.0
 Atom   2 batch    2 overlaps   2 atoms and    6 shells. NGrid=        26
 At   2 B   3: 100.0% Sh 100.0 % Bf    1 runs, min   18 max   18 av   18.0
 Atom   2 batch    3 overlaps   2 atoms and    6 shells. NGrid=        26
 At   2 B   4: 100.0% Sh 100.0 % Bf    1 runs, min   18 max   18 av   18.0
 Atom   2 batch    4 overlaps   2 atoms and    6 shells. NGrid=        26
 At   2 B   5: 100.0% Sh 100.0 % Bf    1 runs, min   18 max   18 av   18.0
 Atom   2 batch    5 overlaps   2 atoms and    6 shells. NGrid=        26
 At   2 B   6: 100.0% Sh 100.0 % Bf    1 runs, min   18 max   18 av   18.0
 Atom   2 batch    6 overlaps   2 atoms and    6 shells. NGrid=        26
 At   2 B   7: 100.0% Sh 100.0 % Bf    1 runs, min   18 max   18 av   18.0
 Atom   2 batch    7 overlaps   2 atoms and    6 shells. NGrid=        26
 At   2 B   8: 100.0% Sh 100.0 % Bf    1 runs, min   18 max   18 av   18.0
 Atom   2 batch    8 overlaps   2 atoms and    6 shells. NGrid=        26
 At   2 B   9: 100.0% Sh 100.0 % Bf    1 runs, min   18 max   18 av   18.0
 Atom   2 batch    9 overlaps   2 atoms and    6 shells. NGrid=        26
 At   2 B  10: 100.0% Sh 100.0 % Bf    1 runs, min   18 max   18 av   18.0
 Atom   2 batch   10 overlaps   2 atoms and    6 shells. NGrid=        26
 At   2 B  11: 100.0% Sh 100.0 % Bf    1 runs, min   18 max   18 av   18.0
 Atom   2 batch   11 overlaps   2 atoms and    6 shells. NGrid=        26
 At   2 B  12: 100.0% Sh 100.0 % Bf    1 runs, min   18 max   18 av   18.0
 Atom   2 batch   12 overlaps   2 atoms and    6 shells. NGrid=        26
 At   2 B  13: 100.0% Sh 100.0 % Bf    1 runs, min   18 max   18 av   18.0
 Atom   2 batch   13 overlaps   2 atoms and    6 shells. NGrid=        26
 At   2 B  14: 100.0% Sh 100.0 % Bf    1 runs, min   18 max   18 av   18.0
 Atom   2 batch   14 overlaps   2 atoms and    6 shells. NGrid=        26
 At   2 B  15: 100.0% Sh 100.0 % Bf    1 runs, min   18 max   18 av   18.0
 Atom   2 batch   15 overlaps   2 atoms and    6 shells. NGrid=        26
 At   2 B  16: 100.0% Sh 100.0 % Bf    1 runs, min   18 max   18 av   18.0
 Atom   2 batch   16 overlaps   2 atoms and    6 shells. NGrid=        26
 At   2 B  17: 100.0% Sh 100.0 % Bf    1 runs, min   18 max   18 av   18.0
 Atom   2 batch   17 overlaps   2 atoms and    6 shells. NGrid=        26
 At   2 B  18: 100.0% Sh 100.0 % Bf    1 runs, min   18 max   18 av   18.0
 Atom   2 batch   18 overlaps   2 atoms and    6 shells. NGrid=        26
 At   2 B  19: 100.0% Sh 100.0 % Bf    1 runs, min   18 max   18 av   18.0
 Atom   2 batch   19 overlaps   2 atoms and    6 shells. NGrid=        26
 At   2 B  20: 100.0% Sh 100.0 % Bf    1 runs, min   18 max   18 av   18.0
 Atom   2 batch   20 overlaps   2 atoms and    6 shells. NGrid=        26
 At   2 B  21: 100.0% Sh 100.0 % Bf    1 runs, min   18 max   18 av   18.0
 Atom   2 batch   21 overlaps   2 atoms and    6 shells. NGrid=        26
 At   2 B  22: 100.0% Sh 100.0 % Bf    1 runs, min   18 max   18 av   18.0
 Atom   2 batch   22 overlaps   2 atoms and    6 shells. NGrid=        26
 At   2 B  23: 100.0% Sh 100.0 % Bf    1 runs, min   18 max   18 av   18.0
 Atom   2 batch   23 overlaps   2 atoms and    6 shells. NGrid=        86
 At   2 B  24: 100.0% Sh 100.0 % Bf    1 runs, min   18 max   18 av   18.0
 Atom   2 batch   24 overlaps   2 atoms and    6 shells. NGrid=        86
 At   2 B  25: 100.0% Sh 100.0 % Bf    1 runs, min   18 max   18 av   18.0
 Atom   2 batch   25 overlaps   2 atoms and    6 shells. NGrid=        86
 At   2 B  26: 100.0% Sh 100.0 % Bf    1 runs, min   18 max   18 av   18.0
 Atom   2 batch   26 overlaps   2 atoms and    6 shells. NGrid=        86
 At   2 B  27: 100.0% Sh 100.0 % Bf    1 runs, min   18 max   18 av   18.0
 Atom   2 batch   27 overlaps   2 atoms and    6 shells. NGrid=        86
 At   2 B  28: 100.0% Sh 100.0 % Bf    1 runs, min   18 max   18 av   18.0
 Atom   2 batch   28 overlaps   2 atoms and    6 shells. NGrid=        86
 At   2 B  29: 100.0% Sh 100.0 % Bf    1 runs, min   18 max   18 av   18.0
 Atom   2 batch   29 overlaps   2 atoms and    6 shells. NGrid=        86
 At   2 B  30: 100.0% Sh 100.0 % Bf    1 runs, min   18 max   18 av   18.0
 Atom   2 batch   30 overlaps   2 atoms and    6 shells. NGrid=        86
 At   2 B  31: 100.0% Sh 100.0 % Bf    1 runs, min   18 max   18 av   18.0
 Atom   2 batch   31 overlaps   2 atoms and    6 shells. NGrid=        86
 At   2 B  32: 100.0% Sh 100.0 % Bf    1 runs, min   18 max   18 av   18.0
 Atom   2 batch   32 overlaps   2 atoms and    6 shells. NGrid=       146
 At   2 B  33: 100.0% Sh 100.0 % Bf    1 runs, min   18 max   18 av   18.0
 Atom   2 batch   33 overlaps   2 atoms and    6 shells. NGrid=       146
 At   2 B  34: 100.0% Sh 100.0 % Bf    1 runs, min   18 max   18 av   18.0
 Atom   2 batch   34 overlaps   2 atoms and    6 shells. NGrid=       146
 At   2 B  35: 100.0% Sh 100.0 % Bf    1 runs, min   18 max   18 av   18.0
 Atom   2 batch   35 overlaps   2 atoms and    6 shells. NGrid=       146
 At   2 B  36: 100.0% Sh 100.0 % Bf    1 runs, min   18 max   18 av   18.0
 Atom   2 batch   36 overlaps   2 atoms and    6 shells. NGrid=       146
 At   2 B  37: 100.0% Sh 100.0 % Bf    1 runs, min   18 max   18 av   18.0
 Atom   2 batch   37 overlaps   2 atoms and    6 shells. NGrid=       302
 At   2 B  38: 100.0% Sh 100.0 % Bf    1 runs, min   18 max   18 av   18.0
 Atom   2 batch   38 overlaps   2 atoms and    6 shells. NGrid=       302
 At   2 B  39: 100.0% Sh 100.0 % Bf    1 runs, min   18 max   18 av   18.0
 Atom   2 batch   39 overlaps   2 atoms and    6 shells. NGrid=       302
 At   2 B  40: 100.0% Sh 100.0 % Bf    1 runs, min   18 max   18 av   18.0
 Atom   2 batch   40 overlaps   2 atoms and    6 shells. NGrid=       302
 At   2 B  41: 100.0% Sh 100.0 % Bf    1 runs, min   18 max   18 av   18.0
 Atom   2 batch   41 overlaps   2 atoms and    6 shells. NGrid=       302
 At   2 B  42: 100.0% Sh 100.0 % Bf    1 runs, min   18 max   18 av   18.0
 Atom   2 batch   42 overlaps   2 atoms and    6 shells. NGrid=       302
 At   2 B  43: 100.0% Sh 100.0 % Bf    1 runs, min   18 max   18 av   18.0
 Atom   2 batch   43 overlaps   2 atoms and    6 shells. NGrid=       302
 At   2 B  44: 100.0% Sh 100.0 % Bf    1 runs, min   18 max   18 av   18.0
 Atom   2 batch   44 overlaps   2 atoms and    6 shells. NGrid=       302
 At   2 B  45: 100.0% Sh 100.0 % Bf    1 runs, min   18 max   18 av   18.0
 Atom   2 batch   45 overlaps   2 atoms and    6 shells. NGrid=       302
 At   2 B  46:  83.3% Sh  94.4 % Bf    2 runs, min    8 max    9 av    8.5
 Atom   2 batch   46 overlaps   2 atoms and    5 shells. NGrid=       302
 At   2 B  47:  83.3% Sh  94.4 % Bf    2 runs, min    8 max    9 av    8.5
 Atom   2 batch   47 overlaps   2 atoms and    5 shells. NGrid=       302
 At   2 B  48:  83.3% Sh  94.4 % Bf    2 runs, min    8 max    9 av    8.5
 Atom   2 batch   48 overlaps   2 atoms and    5 shells. NGrid=       302
 At   2 B  49:  83.3% Sh  94.4 % Bf    2 runs, min    8 max    9 av    8.5
 Atom   2 batch   49 overlaps   2 atoms and    5 shells. NGrid=       302
 At   2 B  50:  83.3% Sh  94.4 % Bf    2 runs, min    8 max    9 av    8.5
 Atom   2 batch   50 overlaps   2 atoms and    5 shells. NGrid=       146
 At   2 B  51:  83.3% Sh  94.4 % Bf    2 runs, min    8 max    9 av    8.5
 Atom   2 batch   51 overlaps   2 atoms and    5 shells. NGrid=       146
 At   2 B  52:  66.7% Sh  88.9 % Bf    3 runs, min    4 max    8 av    5.3
 Atom   2 batch   52 overlaps   2 atoms and    4 shells. NGrid=       146
 At   2 B  53:  66.7% Sh  88.9 % Bf    3 runs, min    4 max    8 av    5.3
 Atom   2 batch   53 overlaps   2 atoms and    4 shells. NGrid=       146
 At   2 B  54:  50.0% Sh  66.7 % Bf    3 runs, min    4 max    4 av    4.0
 Atom   2 batch   54 overlaps   2 atoms and    3 shells. NGrid=       146
 At   2 B  55:  50.0% Sh  66.7 % Bf    3 runs, min    4 max    4 av    4.0
 Atom   2 batch   55 overlaps   2 atoms and    3 shells. NGrid=       146
 At   2 B  56:  33.3% Sh  44.4 % Bf    2 runs, min    4 max    4 av    4.0
 Atom   2 batch   56 overlaps   2 atoms and    2 shells. NGrid=       146
 At   2 B  57:  33.3% Sh  44.4 % Bf    2 runs, min    4 max    4 av    4.0
 Atom   2 batch   57 overlaps   2 atoms and    2 shells. NGrid=       146
 At   2 B  58:  33.3% Sh  44.4 % Bf    2 runs, min    4 max    4 av    4.0
 Atom   2 batch   58 overlaps   2 atoms and    2 shells. NGrid=       146
 At   2 B  59:  16.7% Sh  22.2 % Bf    1 runs, min    4 max    4 av    4.0
 Atom   2 batch   59 overlaps   2 atoms and    1 shells. NGrid=       146
 NRdTot=     118 NPtTot=       14924 NUsed=       15759 NTot=       15791
 NSgBfM=    18    18    18    18.
 IGWInf( 1) =          32 (NGWInf)
 IGWInf( 2) =           2 (NAtomA)
 IGWInf( 3) =           4 (IRadAn)
 IGWInf( 4) =          -1 (IRanWt)
 IGWInf( 5) =           0 (IRanGd)
 IGWInf( 6) =           2 (IRType)
 IGWInf( 7) =         118 (NRdTot)
 IGWInf( 8) =       14924 (NGWTot)
 IGWInf( 9) =       14924 (LGWBtD)
 IGWInf(10) =           4 (NAtBtD)
 IGWInf(11) =           5 (NIRBtD)
 IGWInf(12) =           2 (NRRBtD)
 IGWInf(13) =           1 (NClRep)
 IGWInf(14) =           0 (ICntr3)
 IGWInf(15) =           0 (IPFlag)
 IGWInf(16) =           1 (IGet)  
 IGWInf(17) =           1         
 IGWInf(18) =          18         
 IGWInf(19) =          18         
 IGWInf(20) =          18         
 IGWInf(21) =          18         
 IGWInf(22) =           2         
 IGWInf(23) =           2         
 IGWInf(24) =           0         
 IGWInf(25) =           0         
 IGWInf(26) =           0         
 IGWInf(27) =           0         
 IGWInf(28) =           0         
 IGWInf(29) =           0         
 IGWInf(30) =           0         
 IGWInf(31) =           0         
 IGWInf(32) =           0         
 IAtBtD: 
              1            2
     1            0           59
     2            1            2
     3            0         7462
     4           59           59
 Leave Link  302 at Sun Jun 26 04:53:39 2011, MaxMem=    6291456 cpu:       0.1
 (Enter /fougeron/home/gauss3/g03/l308.exe)
 Dipole velocity integrals will be written to rwf   572.
 Entering OneElI...
 OneElI was handed  6290430 working-precision words.
 Calculate R x Del and Del integrals.
    NBasis =    18  MinDer = 0  MaxDer = 0
 Requested accuracy = 0.1000D-12
 PrsmSu:  NPrtUS=   1 ThrOK=F
 PRISM was handed     6287517 working-precision words and    21 shell-pairs
 Dipole Velocity for IMat=          1
                1             2             3             4             5
      1  0.000000D+00
      2  0.000000D+00  0.000000D+00
      3 -0.140151D+01 -0.639609D+00  0.000000D+00
      4  0.000000D+00  0.000000D+00  0.000000D+00  0.000000D+00
      5  0.000000D+00  0.000000D+00  0.000000D+00  0.000000D+00  0.000000D+00
      6  0.000000D+00  0.000000D+00  0.274600D+00  0.000000D+00  0.000000D+00
      7 -0.190008D+00 -0.623650D+00  0.000000D+00  0.000000D+00  0.000000D+00
      8  0.000000D+00  0.000000D+00  0.000000D+00  0.000000D+00  0.000000D+00
      9  0.000000D+00  0.000000D+00  0.000000D+00  0.000000D+00  0.000000D+00
     10  0.000000D+00  0.000000D+00  0.941860D-02  0.000000D+00  0.000000D+00
     11  0.000000D+00  0.000000D+00  0.907636D-01  0.000000D+00  0.000000D+00
     12 -0.941860D-02 -0.907636D-01  0.000000D+00  0.000000D+00  0.162084D+00
     13  0.000000D+00  0.000000D+00  0.000000D+00  0.000000D+00  0.000000D+00
     14  0.000000D+00  0.000000D+00  0.162084D+00  0.000000D+00  0.000000D+00
     15  0.000000D+00  0.000000D+00  0.102323D+00  0.000000D+00  0.000000D+00
     16 -0.583309D-01 -0.242042D+00  0.000000D+00  0.000000D+00  0.182860D+00
     17  0.000000D+00  0.000000D+00  0.000000D+00  0.000000D+00  0.000000D+00
     18  0.000000D+00  0.000000D+00  0.182860D+00  0.000000D+00  0.000000D+00
                6             7             8             9            10
      6  0.000000D+00
      7 -0.532170D+00  0.000000D+00
      8  0.000000D+00  0.000000D+00  0.000000D+00
      9  0.000000D+00  0.000000D+00  0.000000D+00  0.000000D+00
     10  0.000000D+00  0.583309D-01  0.000000D+00  0.000000D+00  0.000000D+00
     11  0.000000D+00  0.242042D+00  0.000000D+00  0.000000D+00  0.000000D+00
     12 -0.102323D+00  0.000000D+00  0.000000D+00  0.182860D+00 -0.140151D+01
     13  0.000000D+00  0.000000D+00  0.000000D+00  0.000000D+00  0.000000D+00
     14  0.000000D+00  0.182860D+00  0.000000D+00  0.000000D+00  0.000000D+00
     15  0.000000D+00  0.289356D+00  0.000000D+00  0.000000D+00  0.000000D+00
     16 -0.289356D+00  0.000000D+00  0.000000D+00  0.319422D+00 -0.190008D+00
     17  0.000000D+00  0.000000D+00  0.000000D+00  0.000000D+00  0.000000D+00
     18  0.000000D+00  0.319422D+00  0.000000D+00  0.000000D+00  0.000000D+00
               11            12            13            14            15
     11  0.000000D+00
     12 -0.639609D+00  0.000000D+00
     13  0.000000D+00  0.000000D+00  0.000000D+00
     14  0.000000D+00  0.000000D+00  0.000000D+00  0.000000D+00
     15  0.000000D+00  0.274600D+00  0.000000D+00  0.000000D+00  0.000000D+00
     16 -0.623650D+00  0.000000D+00  0.000000D+00  0.000000D+00 -0.532170D+00
     17  0.000000D+00  0.000000D+00  0.000000D+00  0.000000D+00  0.000000D+00
     18  0.000000D+00  0.000000D+00  0.000000D+00  0.000000D+00  0.000000D+00
               16            17            18
     16  0.000000D+00
     17  0.000000D+00  0.000000D+00
     18  0.000000D+00  0.000000D+00  0.000000D+00
 Dipole Velocity for IMat=          2
                1             2             3             4             5
      1  0.000000D+00
      2  0.000000D+00  0.000000D+00
      3  0.000000D+00  0.000000D+00  0.000000D+00
      4 -0.140151D+01 -0.639609D+00  0.000000D+00  0.000000D+00
      5  0.000000D+00  0.000000D+00  0.000000D+00  0.000000D+00  0.000000D+00
      6  0.000000D+00  0.000000D+00  0.000000D+00  0.274600D+00  0.000000D+00
      7  0.000000D+00  0.000000D+00  0.000000D+00  0.000000D+00  0.000000D+00
      8 -0.190008D+00 -0.623650D+00  0.000000D+00  0.000000D+00  0.000000D+00
      9  0.000000D+00  0.000000D+00  0.000000D+00  0.000000D+00  0.000000D+00
     10  0.000000D+00  0.000000D+00  0.000000D+00  0.941860D-02  0.000000D+00
     11  0.000000D+00  0.000000D+00  0.000000D+00  0.907636D-01  0.000000D+00
     12  0.000000D+00  0.000000D+00  0.000000D+00  0.000000D+00  0.000000D+00
     13 -0.941860D-02 -0.907636D-01  0.000000D+00  0.000000D+00  0.162084D+00
     14  0.000000D+00  0.000000D+00  0.000000D+00  0.162084D+00  0.000000D+00
     15  0.000000D+00  0.000000D+00  0.000000D+00  0.102323D+00  0.000000D+00
     16  0.000000D+00  0.000000D+00  0.000000D+00  0.000000D+00  0.000000D+00
     17 -0.583309D-01 -0.242042D+00  0.000000D+00  0.000000D+00  0.182860D+00
     18  0.000000D+00  0.000000D+00  0.000000D+00  0.182860D+00  0.000000D+00
                6             7             8             9            10
      6  0.000000D+00
      7  0.000000D+00  0.000000D+00
      8 -0.532170D+00  0.000000D+00  0.000000D+00
      9  0.000000D+00  0.000000D+00  0.000000D+00  0.000000D+00
     10  0.000000D+00  0.000000D+00  0.583309D-01  0.000000D+00  0.000000D+00
     11  0.000000D+00  0.000000D+00  0.242042D+00  0.000000D+00  0.000000D+00
     12  0.000000D+00  0.000000D+00  0.000000D+00  0.000000D+00  0.000000D+00
     13 -0.102323D+00  0.000000D+00  0.000000D+00  0.182860D+00 -0.140151D+01
     14  0.000000D+00  0.000000D+00  0.182860D+00  0.000000D+00  0.000000D+00
     15  0.000000D+00  0.000000D+00  0.289356D+00  0.000000D+00  0.000000D+00
     16  0.000000D+00  0.000000D+00  0.000000D+00  0.000000D+00  0.000000D+00
     17 -0.289356D+00  0.000000D+00  0.000000D+00  0.319422D+00 -0.190008D+00
     18  0.000000D+00  0.000000D+00  0.319422D+00  0.000000D+00  0.000000D+00
               11            12            13            14            15
     11  0.000000D+00
     12  0.000000D+00  0.000000D+00
     13 -0.639609D+00  0.000000D+00  0.000000D+00
     14  0.000000D+00  0.000000D+00  0.000000D+00  0.000000D+00
     15  0.000000D+00  0.000000D+00  0.274600D+00  0.000000D+00  0.000000D+00
     16  0.000000D+00  0.000000D+00  0.000000D+00  0.000000D+00  0.000000D+00
     17 -0.623650D+00  0.000000D+00  0.000000D+00  0.000000D+00 -0.532170D+00
     18  0.000000D+00  0.000000D+00  0.000000D+00  0.000000D+00  0.000000D+00
               16            17            18
     16  0.000000D+00
     17  0.000000D+00  0.000000D+00
     18  0.000000D+00  0.000000D+00  0.000000D+00
 Dipole Velocity for IMat=          3
                1             2             3             4             5
      1  0.000000D+00
      2  0.000000D+00  0.000000D+00
      3  0.000000D+00  0.000000D+00  0.000000D+00
      4  0.000000D+00  0.000000D+00  0.000000D+00  0.000000D+00
      5 -0.140151D+01 -0.639609D+00  0.000000D+00  0.000000D+00  0.000000D+00
      6  0.000000D+00  0.000000D+00  0.000000D+00  0.000000D+00  0.274600D+00
      7  0.000000D+00  0.000000D+00  0.000000D+00  0.000000D+00  0.000000D+00
      8  0.000000D+00  0.000000D+00  0.000000D+00  0.000000D+00  0.000000D+00
      9 -0.190008D+00 -0.623650D+00  0.000000D+00  0.000000D+00  0.000000D+00
     10  0.000000D+00  0.298496D-01  0.000000D+00  0.000000D+00 -0.728606D-01
     11  0.298496D-01  0.257036D+00  0.000000D+00  0.000000D+00 -0.343938D+00
     12  0.000000D+00  0.000000D+00  0.162084D+00  0.000000D+00  0.000000D+00
     13  0.000000D+00  0.000000D+00  0.000000D+00  0.162084D+00  0.000000D+00
     14  0.728606D-01  0.343938D+00  0.000000D+00  0.000000D+00 -0.359267D+00
     15  0.643920D-01  0.267192D+00  0.000000D+00  0.000000D+00 -0.995378D-01
     16  0.000000D+00  0.000000D+00  0.182860D+00  0.000000D+00  0.000000D+00
     17  0.000000D+00  0.000000D+00  0.000000D+00  0.182860D+00  0.000000D+00
     18  0.794310D-01  0.217667D+00  0.000000D+00  0.000000D+00  0.187283D+00
                6             7             8             9            10
      6  0.000000D+00
      7  0.000000D+00  0.000000D+00
      8  0.000000D+00  0.000000D+00  0.000000D+00
      9 -0.532170D+00  0.000000D+00  0.000000D+00  0.000000D+00
     10  0.643920D-01  0.000000D+00  0.000000D+00 -0.794310D-01  0.000000D+00
     11  0.267192D+00  0.000000D+00  0.000000D+00 -0.217667D+00  0.000000D+00
     12  0.000000D+00  0.182860D+00  0.000000D+00  0.000000D+00  0.000000D+00
     13  0.000000D+00  0.000000D+00  0.182860D+00  0.000000D+00  0.000000D+00
     14  0.995378D-01  0.000000D+00  0.000000D+00  0.187283D+00 -0.140151D+01
     15  0.319422D+00  0.000000D+00  0.000000D+00 -0.632570D-01  0.000000D+00
     16  0.000000D+00  0.319422D+00  0.000000D+00  0.000000D+00  0.000000D+00
     17  0.000000D+00  0.000000D+00  0.319422D+00  0.000000D+00  0.000000D+00
     18  0.632570D-01  0.000000D+00  0.000000D+00  0.569014D+00 -0.190008D+00
               11            12            13            14            15
     11  0.000000D+00
     12  0.000000D+00  0.000000D+00
     13  0.000000D+00  0.000000D+00  0.000000D+00
     14 -0.639609D+00  0.000000D+00  0.000000D+00  0.000000D+00
     15  0.000000D+00  0.000000D+00  0.000000D+00  0.274600D+00  0.000000D+00
     16  0.000000D+00  0.000000D+00  0.000000D+00  0.000000D+00  0.000000D+00
     17  0.000000D+00  0.000000D+00  0.000000D+00  0.000000D+00  0.000000D+00
     18 -0.623650D+00  0.000000D+00  0.000000D+00  0.000000D+00 -0.532170D+00
               16            17            18
     16  0.000000D+00
     17  0.000000D+00  0.000000D+00
     18  0.000000D+00  0.000000D+00  0.000000D+00
 R x Del for IMat=          1
                1             2             3             4             5
      1  0.000000D+00
      2  0.000000D+00  0.000000D+00
      3  0.000000D+00  0.000000D+00  0.000000D+00
      4  0.145362D+01  0.663387D+00  0.000000D+00  0.000000D+00
      5  0.000000D+00  0.000000D+00  0.000000D+00 -0.100000D+01  0.000000D+00
      6  0.000000D+00  0.000000D+00  0.000000D+00 -0.284809D+00  0.000000D+00
      7  0.000000D+00  0.000000D+00  0.000000D+00  0.000000D+00  0.000000D+00
      8  0.197072D+00  0.646835D+00  0.000000D+00  0.000000D+00  0.516001D+00
      9  0.000000D+00  0.000000D+00  0.000000D+00 -0.516001D+00  0.000000D+00
     10  0.000000D+00  0.000000D+00  0.000000D+00  0.976875D-02  0.000000D+00
     11  0.000000D+00  0.000000D+00  0.000000D+00  0.941379D-01  0.000000D+00
     12  0.000000D+00  0.000000D+00  0.000000D+00  0.000000D+00  0.000000D+00
     13  0.976875D-02  0.941379D-01  0.000000D+00  0.000000D+00 -0.102376D+00
     14  0.000000D+00  0.000000D+00  0.000000D+00  0.102376D+00  0.000000D+00
     15  0.000000D+00  0.000000D+00  0.000000D+00  0.106127D+00  0.000000D+00
     16  0.000000D+00  0.000000D+00  0.000000D+00  0.000000D+00  0.000000D+00
     17  0.604994D-01  0.251040D+00  0.000000D+00  0.000000D+00  0.261705D-02
     18  0.000000D+00  0.000000D+00  0.000000D+00 -0.261705D-02  0.000000D+00
                6             7             8             9            10
      6  0.000000D+00
      7  0.000000D+00  0.000000D+00
      8  0.551954D+00  0.000000D+00  0.000000D+00
      9  0.000000D+00  0.000000D+00 -0.100000D+01  0.000000D+00
     10  0.000000D+00  0.000000D+00  0.604994D-01  0.000000D+00  0.000000D+00
     11  0.000000D+00  0.000000D+00  0.251040D+00  0.000000D+00  0.000000D+00
     12  0.000000D+00  0.000000D+00  0.000000D+00  0.000000D+00  0.000000D+00
     13  0.106127D+00  0.000000D+00  0.000000D+00  0.261705D-02 -0.145362D+01
     14  0.000000D+00  0.000000D+00 -0.261705D-02  0.000000D+00  0.000000D+00
     15  0.000000D+00  0.000000D+00  0.300113D+00  0.000000D+00  0.000000D+00
     16  0.000000D+00  0.000000D+00  0.000000D+00  0.000000D+00  0.000000D+00
     17  0.300113D+00  0.000000D+00  0.000000D+00  0.212431D+00 -0.197072D+00
     18  0.000000D+00  0.000000D+00 -0.212431D+00  0.000000D+00  0.000000D+00
               11            12            13            14            15
     11  0.000000D+00
     12  0.000000D+00  0.000000D+00
     13 -0.663387D+00  0.000000D+00  0.000000D+00
     14  0.000000D+00  0.000000D+00 -0.100000D+01  0.000000D+00
     15  0.000000D+00  0.000000D+00  0.284809D+00  0.000000D+00  0.000000D+00
     16  0.000000D+00  0.000000D+00  0.000000D+00  0.000000D+00  0.000000D+00
     17 -0.646835D+00  0.000000D+00  0.000000D+00  0.516001D+00 -0.551954D+00
     18  0.000000D+00  0.000000D+00 -0.516001D+00  0.000000D+00  0.000000D+00
               16            17            18
     16  0.000000D+00
     17  0.000000D+00  0.000000D+00
     18  0.000000D+00 -0.100000D+01  0.000000D+00
 R x Del for IMat=          2
                1             2             3             4             5
      1  0.000000D+00
      2  0.000000D+00  0.000000D+00
      3 -0.145362D+01 -0.663387D+00  0.000000D+00
      4  0.000000D+00  0.000000D+00  0.000000D+00  0.000000D+00
      5  0.000000D+00  0.000000D+00  0.100000D+01  0.000000D+00  0.000000D+00
      6  0.000000D+00  0.000000D+00  0.284809D+00  0.000000D+00  0.000000D+00
      7 -0.197072D+00 -0.646835D+00  0.000000D+00  0.000000D+00 -0.516001D+00
      8  0.000000D+00  0.000000D+00  0.000000D+00  0.000000D+00  0.000000D+00
      9  0.000000D+00  0.000000D+00  0.516001D+00  0.000000D+00  0.000000D+00
     10  0.000000D+00  0.000000D+00 -0.976875D-02  0.000000D+00  0.000000D+00
     11  0.000000D+00  0.000000D+00 -0.941379D-01  0.000000D+00  0.000000D+00
     12 -0.976875D-02 -0.941379D-01  0.000000D+00  0.000000D+00  0.102376D+00
     13  0.000000D+00  0.000000D+00  0.000000D+00  0.000000D+00  0.000000D+00
     14  0.000000D+00  0.000000D+00 -0.102376D+00  0.000000D+00  0.000000D+00
     15  0.000000D+00  0.000000D+00 -0.106127D+00  0.000000D+00  0.000000D+00
     16 -0.604994D-01 -0.251040D+00  0.000000D+00  0.000000D+00 -0.261705D-02
     17  0.000000D+00  0.000000D+00  0.000000D+00  0.000000D+00  0.000000D+00
     18  0.000000D+00  0.000000D+00  0.261705D-02  0.000000D+00  0.000000D+00
                6             7             8             9            10
      6  0.000000D+00
      7 -0.551954D+00  0.000000D+00
      8  0.000000D+00  0.000000D+00  0.000000D+00
      9  0.000000D+00  0.100000D+01  0.000000D+00  0.000000D+00
     10  0.000000D+00 -0.604994D-01  0.000000D+00  0.000000D+00  0.000000D+00
     11  0.000000D+00 -0.251040D+00  0.000000D+00  0.000000D+00  0.000000D+00
     12 -0.106127D+00  0.000000D+00  0.000000D+00 -0.261705D-02  0.145362D+01
     13  0.000000D+00  0.000000D+00  0.000000D+00  0.000000D+00  0.000000D+00
     14  0.000000D+00  0.261705D-02  0.000000D+00  0.000000D+00  0.000000D+00
     15  0.000000D+00 -0.300113D+00  0.000000D+00  0.000000D+00  0.000000D+00
     16 -0.300113D+00  0.000000D+00  0.000000D+00 -0.212431D+00  0.197072D+00
     17  0.000000D+00  0.000000D+00  0.000000D+00  0.000000D+00  0.000000D+00
     18  0.000000D+00  0.212431D+00  0.000000D+00  0.000000D+00  0.000000D+00
               11            12            13            14            15
     11  0.000000D+00
     12  0.663387D+00  0.000000D+00
     13  0.000000D+00  0.000000D+00  0.000000D+00
     14  0.000000D+00  0.100000D+01  0.000000D+00  0.000000D+00
     15  0.000000D+00 -0.284809D+00  0.000000D+00  0.000000D+00  0.000000D+00
     16  0.646835D+00  0.000000D+00  0.000000D+00 -0.516001D+00  0.551954D+00
     17  0.000000D+00  0.000000D+00  0.000000D+00  0.000000D+00  0.000000D+00
     18  0.000000D+00  0.516001D+00  0.000000D+00  0.000000D+00  0.000000D+00
               16            17            18
     16  0.000000D+00
     17  0.000000D+00  0.000000D+00
     18  0.100000D+01  0.000000D+00  0.000000D+00
 R x Del for IMat=          3
                1             2             3             4             5
      1  0.000000D+00
      2  0.000000D+00  0.000000D+00
      3  0.000000D+00  0.000000D+00  0.000000D+00
      4  0.000000D+00  0.000000D+00 -0.100000D+01  0.000000D+00
      5  0.000000D+00  0.000000D+00  0.000000D+00  0.000000D+00  0.000000D+00
      6  0.000000D+00  0.000000D+00  0.000000D+00  0.000000D+00  0.000000D+00
      7  0.000000D+00  0.000000D+00  0.000000D+00  0.516001D+00  0.000000D+00
      8  0.000000D+00  0.000000D+00 -0.516001D+00  0.000000D+00  0.000000D+00
      9  0.000000D+00  0.000000D+00  0.000000D+00  0.000000D+00  0.000000D+00
     10  0.000000D+00  0.000000D+00  0.000000D+00  0.000000D+00  0.000000D+00
     11  0.000000D+00  0.000000D+00  0.000000D+00  0.000000D+00  0.000000D+00
     12  0.000000D+00  0.000000D+00  0.000000D+00  0.657343D-01  0.000000D+00
     13  0.000000D+00  0.000000D+00 -0.657343D-01  0.000000D+00  0.000000D+00
     14  0.000000D+00  0.000000D+00  0.000000D+00  0.000000D+00  0.000000D+00
     15  0.000000D+00  0.000000D+00  0.000000D+00  0.000000D+00  0.000000D+00
     16  0.000000D+00  0.000000D+00  0.000000D+00  0.192275D+00  0.000000D+00
     17  0.000000D+00  0.000000D+00 -0.192275D+00  0.000000D+00  0.000000D+00
     18  0.000000D+00  0.000000D+00  0.000000D+00  0.000000D+00  0.000000D+00
                6             7             8             9            10
      6  0.000000D+00
      7  0.000000D+00  0.000000D+00
      8  0.000000D+00 -0.100000D+01  0.000000D+00
      9  0.000000D+00  0.000000D+00  0.000000D+00  0.000000D+00
     10  0.000000D+00  0.000000D+00  0.000000D+00  0.000000D+00  0.000000D+00
     11  0.000000D+00  0.000000D+00  0.000000D+00  0.000000D+00  0.000000D+00
     12  0.000000D+00  0.000000D+00  0.192275D+00  0.000000D+00  0.000000D+00
     13  0.000000D+00 -0.192275D+00  0.000000D+00  0.000000D+00  0.000000D+00
     14  0.000000D+00  0.000000D+00  0.000000D+00  0.000000D+00  0.000000D+00
     15  0.000000D+00  0.000000D+00  0.000000D+00  0.000000D+00  0.000000D+00
     16  0.000000D+00  0.000000D+00  0.543728D+00  0.000000D+00  0.000000D+00
     17  0.000000D+00 -0.543728D+00  0.000000D+00  0.000000D+00  0.000000D+00
     18  0.000000D+00  0.000000D+00  0.000000D+00  0.000000D+00  0.000000D+00
               11            12            13            14            15
     11  0.000000D+00
     12  0.000000D+00  0.000000D+00
     13  0.000000D+00 -0.100000D+01  0.000000D+00
     14  0.000000D+00  0.000000D+00  0.000000D+00  0.000000D+00
     15  0.000000D+00  0.000000D+00  0.000000D+00  0.000000D+00  0.000000D+00
     16  0.000000D+00  0.000000D+00  0.516001D+00  0.000000D+00  0.000000D+00
     17  0.000000D+00 -0.516001D+00  0.000000D+00  0.000000D+00  0.000000D+00
     18  0.000000D+00  0.000000D+00  0.000000D+00  0.000000D+00  0.000000D+00
               16            17            18
     16  0.000000D+00
     17 -0.100000D+01  0.000000D+00
     18  0.000000D+00  0.000000D+00  0.000000D+00
 Leave Link  308 at Sun Jun 26 04:53:39 2011, MaxMem=    6291456 cpu:       0.0
 (Enter /fougeron/home/gauss3/g03/l303.exe)
 DipDrv:  MaxL=1.
 DipPsm:  J= 1 NJ= 4 MaxL=1 MMat= 4 MaxMat= 4.
 Entering OneElI...
 OneElI was handed  6290771 working-precision words.
 Multipole integrals L=0 to 1 MinM= 0 MaxM= 3.
 Requested accuracy = 0.1000D-12
 PrsmSu:  NPrtUS=   1 ThrOK=F
 PRISM was handed     6288182 working-precision words and    21 shell-pairs
 Multipole matrices IBuc=  518 IX=    1 IJ=           1:
                1             2             3             4             5
      1  0.000000D+00
      2  0.000000D+00  0.000000D+00
      3  0.728767D-01  0.499453D+00  0.000000D+00
      4  0.000000D+00  0.000000D+00  0.000000D+00  0.000000D+00
      5  0.000000D+00  0.000000D+00  0.000000D+00  0.000000D+00  0.000000D+00
      6  0.000000D+00  0.000000D+00  0.484808D+00  0.000000D+00  0.000000D+00
      7  0.107169D-01  0.312385D+00  0.000000D+00  0.000000D+00  0.000000D+00
      8  0.000000D+00  0.000000D+00  0.000000D+00  0.000000D+00  0.000000D+00
      9  0.000000D+00  0.000000D+00  0.000000D+00  0.000000D+00  0.000000D+00
     10  0.000000D+00  0.000000D+00  0.547163D-03  0.000000D+00  0.000000D+00
     11  0.000000D+00  0.000000D+00  0.419022D-01  0.000000D+00  0.000000D+00
     12  0.547163D-03  0.419022D-01  0.000000D+00  0.000000D+00 -0.681780D-01
     13  0.000000D+00  0.000000D+00  0.000000D+00  0.000000D+00  0.000000D+00
     14  0.000000D+00  0.000000D+00  0.681780D-01  0.000000D+00  0.000000D+00
     15  0.000000D+00  0.000000D+00  0.180652D+00  0.000000D+00  0.000000D+00
     16  0.330248D-02  0.118200D+00  0.000000D+00  0.000000D+00 -0.760060D-01
     17  0.000000D+00  0.000000D+00  0.000000D+00  0.000000D+00  0.000000D+00
     18  0.000000D+00  0.000000D+00  0.322841D+00  0.000000D+00  0.000000D+00
                6             7             8             9            10
      6  0.000000D+00
      7  0.939549D+00  0.000000D+00
      8  0.000000D+00  0.000000D+00  0.000000D+00
      9  0.000000D+00  0.000000D+00  0.000000D+00  0.000000D+00
     10  0.000000D+00  0.330248D-02  0.000000D+00  0.000000D+00  0.000000D+00
     11  0.000000D+00  0.118200D+00  0.000000D+00  0.000000D+00  0.000000D+00
     12  0.180652D+00  0.000000D+00  0.000000D+00 -0.322841D+00  0.728767D-01
     13  0.000000D+00  0.000000D+00  0.000000D+00  0.000000D+00  0.000000D+00
     14  0.000000D+00  0.760060D-01  0.000000D+00  0.000000D+00  0.000000D+00
     15  0.000000D+00  0.510859D+00  0.000000D+00  0.000000D+00  0.000000D+00
     16  0.510859D+00  0.000000D+00  0.000000D+00 -0.563941D+00  0.107169D-01
     17  0.000000D+00  0.000000D+00  0.000000D+00  0.000000D+00  0.000000D+00
     18  0.000000D+00  0.563941D+00  0.000000D+00  0.000000D+00  0.000000D+00
               11            12            13            14            15
     11  0.000000D+00
     12  0.499453D+00  0.000000D+00
     13  0.000000D+00  0.000000D+00  0.000000D+00
     14  0.000000D+00  0.000000D+00  0.000000D+00  0.000000D+00
     15  0.000000D+00  0.484808D+00  0.000000D+00  0.000000D+00  0.000000D+00
     16  0.312385D+00  0.000000D+00  0.000000D+00  0.000000D+00  0.939549D+00
     17  0.000000D+00  0.000000D+00  0.000000D+00  0.000000D+00  0.000000D+00
     18  0.000000D+00  0.000000D+00  0.000000D+00  0.000000D+00  0.000000D+00
               16            17            18
     16  0.000000D+00
     17  0.000000D+00  0.000000D+00
     18  0.000000D+00  0.000000D+00  0.000000D+00
 Multipole matrices IBuc=  518 IX=    2 IJ=           1:
                1             2             3             4             5
      1  0.000000D+00
      2  0.000000D+00  0.000000D+00
      3  0.000000D+00  0.000000D+00  0.000000D+00
      4  0.728767D-01  0.499453D+00  0.000000D+00  0.000000D+00
      5  0.000000D+00  0.000000D+00  0.000000D+00  0.000000D+00  0.000000D+00
      6  0.000000D+00  0.000000D+00  0.000000D+00  0.484808D+00  0.000000D+00
      7  0.000000D+00  0.000000D+00  0.000000D+00  0.000000D+00  0.000000D+00
      8  0.107169D-01  0.312385D+00  0.000000D+00  0.000000D+00  0.000000D+00
      9  0.000000D+00  0.000000D+00  0.000000D+00  0.000000D+00  0.000000D+00
     10  0.000000D+00  0.000000D+00  0.000000D+00  0.547163D-03  0.000000D+00
     11  0.000000D+00  0.000000D+00  0.000000D+00  0.419022D-01  0.000000D+00
     12  0.000000D+00  0.000000D+00  0.000000D+00  0.000000D+00  0.000000D+00
     13  0.547163D-03  0.419022D-01  0.000000D+00  0.000000D+00 -0.681780D-01
     14  0.000000D+00  0.000000D+00  0.000000D+00  0.681780D-01  0.000000D+00
     15  0.000000D+00  0.000000D+00  0.000000D+00  0.180652D+00  0.000000D+00
     16  0.000000D+00  0.000000D+00  0.000000D+00  0.000000D+00  0.000000D+00
     17  0.330248D-02  0.118200D+00  0.000000D+00  0.000000D+00 -0.760060D-01
     18  0.000000D+00  0.000000D+00  0.000000D+00  0.322841D+00  0.000000D+00
                6             7             8             9            10
      6  0.000000D+00
      7  0.000000D+00  0.000000D+00
      8  0.939549D+00  0.000000D+00  0.000000D+00
      9  0.000000D+00  0.000000D+00  0.000000D+00  0.000000D+00
     10  0.000000D+00  0.000000D+00  0.330248D-02  0.000000D+00  0.000000D+00
     11  0.000000D+00  0.000000D+00  0.118200D+00  0.000000D+00  0.000000D+00
     12  0.000000D+00  0.000000D+00  0.000000D+00  0.000000D+00  0.000000D+00
     13  0.180652D+00  0.000000D+00  0.000000D+00 -0.322841D+00  0.728767D-01
     14  0.000000D+00  0.000000D+00  0.760060D-01  0.000000D+00  0.000000D+00
     15  0.000000D+00  0.000000D+00  0.510859D+00  0.000000D+00  0.000000D+00
     16  0.000000D+00  0.000000D+00  0.000000D+00  0.000000D+00  0.000000D+00
     17  0.510859D+00  0.000000D+00  0.000000D+00 -0.563941D+00  0.107169D-01
     18  0.000000D+00  0.000000D+00  0.563941D+00  0.000000D+00  0.000000D+00
[...]
       7 ->  8         0.66619
 This state for optimization and/or second-order correction.
 Total Energy, E(RPA) =  -108.558800229    
 Copying the excited state density for this state as the 1-particle RhoCI density.
 
 Excited state symmetry could not be determined.
 Excited State   2:   Singlet-?Sym    9.0638 eV  136.79 nm  f=0.0000
       7 ->  9         0.66619
 
 Excited state symmetry could not be determined.
 Excited State   3:   Singlet-?Sym    9.7323 eV  127.39 nm  f=0.0000
       5 ->  9        -0.48314
       6 ->  8         0.48314
 
 Excited state symmetry could not be determined.
 Excited State   4:   Singlet-?Sym   10.2491 eV  120.97 nm  f=0.0000
       5 ->  9         0.50312
       6 ->  8         0.50312
 
 Excited state symmetry could not be determined.
 Excited State   5:   Singlet-?Sym   10.2491 eV  120.97 nm  f=0.0000
       5 ->  8         0.50312
       6 ->  9        -0.50312
 
 Excited state symmetry could not be determined.
 Excited State   6:   Singlet-?Sym   14.3156 eV   86.61 nm  f=0.2923
       4 ->  9         0.63512
 
 Excited state symmetry could not be determined.
 Excited State   7:   Singlet-?Sym   14.3156 eV   86.61 nm  f=0.2923
       4 ->  8         0.63512
 
 Excited state symmetry could not be determined.
 Excited State   8:   Singlet-?Sym   16.6136 eV   74.63 nm  f=0.6023
       5 ->  8         0.37574
       6 ->  9         0.37574
       7 -> 10         0.22265
       7 -> 16         0.11780
 
 Excited State   9:   Singlet-SGU   25.2119 eV   49.18 nm  f=1.6139
       7 -> 10         0.65439
 
 Excited state symmetry could not be determined.
 Excited State  10:   Singlet-?Sym   25.3820 eV   48.85 nm  f=0.0000
       3 ->  9        -0.11417
       6 -> 10         0.69091
 
 Excited state symmetry could not be determined.
 Excited State  11:   Singlet-?Sym   25.3820 eV   48.85 nm  f=0.0000
       3 ->  8        -0.11417
       5 -> 10         0.69091
 
 Excited State  12:   Singlet-SGG   27.9513 eV   44.36 nm  f=0.0000
       4 -> 10         0.68779
 
 Excited state symmetry could not be determined.
 Excited State  13:   Singlet-?Sym   29.7559 eV   41.67 nm  f=0.0000
       3 ->  8         0.68247
       5 -> 10         0.10225
 
 Excited state symmetry could not be determined.
 Excited State  14:   Singlet-?Sym   29.7559 eV   41.67 nm  f=0.0000
       3 ->  9         0.68247
       6 -> 10         0.10225
 
 Excited state symmetry could not be determined.
 Excited State  15:   Singlet-?Sym   35.2633 eV   35.16 nm  f=0.1158
       7 -> 13         0.70119
 
 Excited state symmetry could not be determined.
 Excited State  16:   Singlet-?Sym   35.2633 eV   35.16 nm  f=0.1158
       7 -> 12         0.70119
 
 Excited State  17:   Singlet-SGG   35.5447 eV   34.88 nm  f=0.0000
       5 -> 12         0.22599
       6 -> 13         0.22599
       7 -> 11         0.62659
 
 Excited state symmetry could not be determined.
 Excited State  18:   Singlet-?Sym   36.7068 eV   33.78 nm  f=0.0000
       5 -> 13         0.50234
       6 -> 12         0.50234
 
 Excited state symmetry could not be determined.
 Excited State  19:   Singlet-?Sym   36.7068 eV   33.78 nm  f=0.0000
       5 -> 12         0.50234
       6 -> 13        -0.50234
 
 Excited state symmetry could not be determined.
 Excited State  20:   Singlet-?Sym   36.8447 eV   33.65 nm  f=0.0871
       6 -> 11         0.70100
 Leave Link  914 at Sun Jun 26 04:53:40 2011, MaxMem=    6291456 cpu:       1.1
 (Enter /fougeron/home/gauss3/g03/l601.exe)
 Copying SCF densities to generalized density rwf, ISCF=0 IROHF=0.

 **********************************************************************

            Population analysis using the SCF density.

 **********************************************************************

 Orbital symmetries:
       Occupied  (SGU) (SGG) (SGG) (SGU) (PIU) (PIU) (SGG)
       Virtual   (PIG) (PIG) (SGU) (SGG) (PIU) (PIU) (PIG) (PIG)
                 (SGU) (SGG) (SGU)
 The electronic state is 1-SGG.
 Alpha  occ. eigenvalues --  -14.35103 -14.34947  -1.16523  -0.52753  -0.46621
 Alpha  occ. eigenvalues --   -0.46621  -0.40391
 Alpha virt. eigenvalues --   -0.00975  -0.00975   0.53721   0.96360   0.98177
 Alpha virt. eigenvalues --    0.98177   1.10850   1.10850   1.13984   1.58356
 Alpha virt. eigenvalues --    2.26296
     Molecular Orbital Coefficients
                           1         2         3         4         5
                       (SGU)--O  (SGG)--O  (SGG)--O  (SGU)--O  (PIU)--O
     EIGENVALUES --   -14.35103 -14.34947  -1.16523  -0.52753  -0.46621
   1 1   N  1S          0.69592   0.69565  -0.16757  -0.16700   0.00000
   2        2S          0.07678   0.06889   0.19492   0.15896   0.00000
   3        2PX         0.00000   0.00000   0.00000   0.00000   0.37823
   4        2PY         0.00000   0.00000   0.00000   0.00000   0.00000
   5        2PZ        -0.00581  -0.00094  -0.23085   0.15730   0.00000
   6        3S         -0.06624  -0.01798   0.31577   0.74856   0.00000
   7        3PX         0.00000   0.00000   0.00000   0.00000   0.33168
   8        3PY         0.00000   0.00000   0.00000   0.00000   0.00000
   9        3PZ         0.02699   0.00240  -0.07615   0.04282   0.00000
  10 2   N  1S         -0.69592   0.69565  -0.16757   0.16700   0.00000
  11        2S         -0.07678   0.06889   0.19492  -0.15896   0.00000
  12        2PX         0.00000   0.00000   0.00000   0.00000   0.37823
  13        2PY         0.00000   0.00000   0.00000   0.00000   0.00000
  14        2PZ        -0.00581   0.00094   0.23085   0.15730   0.00000
  15        3S          0.06624  -0.01798   0.31577  -0.74856   0.00000
  16        3PX         0.00000   0.00000   0.00000   0.00000   0.33168
  17        3PY         0.00000   0.00000   0.00000   0.00000   0.00000
  18        3PZ         0.02699  -0.00240   0.07615   0.04282   0.00000
                           6         7         8         9        10
                       (PIU)--O  (SGG)--O  (PIG)--V  (PIG)--V  (SGU)--V
     EIGENVALUES --    -0.46621  -0.40391  -0.00975  -0.00975   0.53721
   1 1   N  1S          0.00000  -0.07435   0.00000   0.00000  -0.13936
   2        2S          0.00000   0.02599   0.00000   0.00000   0.08046
   3        2PX         0.00000   0.00000   0.42386   0.00000   0.00000
   4        2PY         0.37823   0.00000   0.00000   0.42386   0.00000
   5        2PZ         0.00000   0.40161   0.00000   0.00000  -0.25737
   6        3S          0.00000   0.40399   0.00000   0.00000   2.77035
   7        3PX         0.00000   0.00000   0.60394   0.00000   0.00000
   8        3PY         0.33168   0.00000   0.00000   0.60394   0.00000
   9        3PZ         0.00000   0.27139   0.00000   0.00000  -2.03665
  10 2   N  1S          0.00000  -0.07435   0.00000   0.00000   0.13936
  11        2S          0.00000   0.02599   0.00000   0.00000  -0.08046
  12        2PX         0.00000   0.00000  -0.42386   0.00000   0.00000
  13        2PY         0.37823   0.00000   0.00000  -0.42386   0.00000
  14        2PZ         0.00000  -0.40161   0.00000   0.00000  -0.25737
  15        3S          0.00000   0.40399   0.00000   0.00000  -2.77035
  16        3PX         0.00000   0.00000  -0.60394   0.00000   0.00000
  17        3PY         0.33168   0.00000   0.00000  -0.60394   0.00000
  18        3PZ         0.00000  -0.27139   0.00000   0.00000  -2.03665
                          11        12        13        14        15
                       (SGG)--V  (PIU)--V  (PIU)--V  (PIG)--V  (PIG)--V
     EIGENVALUES --     0.96360   0.98177   0.98177   1.10850   1.10850
   1 1   N  1S          0.03810   0.00000   0.00000   0.00000   0.00000
   2        2S          0.11342   0.00000   0.00000   0.00000   0.00000
   3        2PX         0.00000   0.72933   0.00000  -0.72800   0.00000
   4        2PY         0.00000   0.00000   0.72933   0.00000  -0.72800
   5        2PZ        -0.63461   0.00000   0.00000   0.00000   0.00000
   6        3S          0.15146   0.00000   0.00000   0.00000   0.00000
   7        3PX         0.00000  -0.59663   0.00000   1.04323   0.00000
   8        3PY         0.00000   0.00000  -0.59663   0.00000   1.04323
   9        3PZ         0.89899   0.00000   0.00000   0.00000   0.00000
  10 2   N  1S          0.03810   0.00000   0.00000   0.00000   0.00000
  11        2S          0.11342   0.00000   0.00000   0.00000   0.00000
  12        2PX         0.00000   0.72933   0.00000   0.72800   0.00000
  13        2PY         0.00000   0.00000   0.72933   0.00000   0.72800
  14        2PZ         0.63461   0.00000   0.00000   0.00000   0.00000
  15        3S          0.15146   0.00000   0.00000   0.00000   0.00000
  16        3PX         0.00000  -0.59663   0.00000  -1.04323   0.00000
  17        3PY         0.00000   0.00000  -0.59663   0.00000  -1.04323
  18        3PZ        -0.89899   0.00000   0.00000   0.00000   0.00000
                          16        17        18
                       (SGU)--V  (SGG)--V  (SGU)--V
     EIGENVALUES --     1.13984   1.58356   2.26296
   1 1   N  1S         -0.00597  -0.05846   0.01986
   2        2S         -0.08200   1.09452  -1.28694
   3        2PX         0.00000   0.00000   0.00000
   4        2PY         0.00000   0.00000   0.00000
   5        2PZ        -0.85224   0.06664   0.12477
   6        3S         -0.64990  -0.79534   3.65449
   7        3PX         0.00000   0.00000   0.00000
   8        3PY         0.00000   0.00000   0.00000
   9        3PZ         1.00850   0.05924  -1.74087
  10 2   N  1S          0.00597  -0.05846  -0.01986
  11        2S          0.08200   1.09452   1.28694
  12        2PX         0.00000   0.00000   0.00000
  13        2PY         0.00000   0.00000   0.00000
  14        2PZ        -0.85224  -0.06664   0.12477
  15        3S          0.64990  -0.79534  -3.65449
  16        3PX         0.00000   0.00000   0.00000
  17        3PY         0.00000   0.00000   0.00000
  18        3PZ         1.00850  -0.05924  -1.74087
      DENSITY MATRIX.
                           1         2         3         4         5
   1 1   N  1S          2.05944
   2        2S          0.08041   0.14916
   3        2PX        -0.00000  -0.00000   0.28612
   4        2PY        -0.00000  -0.00000   0.00000   0.28612
   5        2PZ        -0.04429  -0.02013   0.00000   0.00000   0.47871
   6        3S         -0.53313   0.36944   0.00000   0.00000   0.41500
   7        3PX         0.00000   0.00000   0.25090   0.00000   0.00000
   8        3PY         0.00000   0.00000   0.00000   0.25090   0.00000
   9        3PZ         0.01177   0.00251   0.00000   0.00000   0.26630
  10 2   N  1S          0.01069  -0.02712   0.00000   0.00000   0.07697
  11        2S         -0.02712   0.02450  -0.00000  -0.00000  -0.11837
  12        2PX        -0.00000   0.00000   0.28612   0.00000  -0.00000
  13        2PY        -0.00000   0.00000   0.00000   0.28612  -0.00000
  14        2PZ        -0.07697   0.11837  -0.00000  -0.00000  -0.37961
  15        3S          0.15130  -0.08619  -0.00000  -0.00000  -0.05753
  16        3PX         0.00000   0.00000   0.25090   0.00000  -0.00000
  17        3PY         0.00000   0.00000   0.00000   0.25090  -0.00000
  18        3PZ         0.03476   0.03301  -0.00000  -0.00000  -0.23998
                           6         7         8         9        10
   6        3S          1.65594
   7        3PX         0.00000   0.22002
   8        3PY         0.00000   0.00000   0.22002
   9        3PZ         0.23164  -0.00000  -0.00000   0.16404
  10 2   N  1S          0.15130  -0.00000  -0.00000  -0.03476   2.05944
  11        2S         -0.08619  -0.00000  -0.00000  -0.03301   0.08041
  12        2PX         0.00000   0.25090   0.00000  -0.00000   0.00000
  13        2PY         0.00000   0.00000   0.25090  -0.00000   0.00000
  14        2PZ         0.05753  -0.00000  -0.00000  -0.23998   0.04429
  15        3S         -0.60297   0.00000   0.00000   0.11057  -0.53313
  16        3PX        -0.00000   0.22002   0.00000  -0.00000  -0.00000
  17        3PY        -0.00000   0.00000   0.22002  -0.00000  -0.00000
  18        3PZ        -0.11057  -0.00000  -0.00000  -0.15379  -0.01177
                          11        12        13        14        15
  11        2S          0.14916
  12        2PX         0.00000   0.28612
  13        2PY         0.00000   0.00000   0.28612
  14        2PZ         0.02013   0.00000   0.00000   0.47871
  15        3S          0.36944  -0.00000  -0.00000  -0.41500   1.65594
  16        3PX        -0.00000   0.25090   0.00000   0.00000  -0.00000
  17        3PY        -0.00000   0.00000   0.25090   0.00000  -0.00000
  18        3PZ        -0.00251   0.00000   0.00000   0.26630  -0.23164
                          16        17        18
  16        3PX         0.22002
  17        3PY         0.00000   0.22002
  18        3PZ        -0.00000  -0.00000   0.16404
    Full Mulliken population analysis:
                           1         2         3         4         5
   1 1   N  1S          2.05944
   2        2S          0.01567   0.14916
   3        2PX        -0.00000  -0.00000   0.28612
   4        2PY        -0.00000  -0.00000   0.00000   0.28612
   5        2PZ        -0.00000  -0.00000  -0.00000   0.00000   0.47871
   6        3S         -0.09822   0.27789   0.00000   0.00000   0.00000
   7        3PX         0.00000   0.00000   0.12947   0.00000  -0.00000
   8        3PY         0.00000   0.00000   0.00000   0.12947   0.00000
   9        3PZ         0.00000   0.00000  -0.00000   0.00000   0.13741
  10 2   N  1S          0.00000  -0.00019  -0.00000  -0.00000  -0.00150
  11        2S         -0.00019   0.00282   0.00000   0.00000   0.02229
  12        2PX        -0.00000   0.00000   0.01881  -0.00000   0.00000
  13        2PY        -0.00000   0.00000  -0.00000   0.01881   0.00000
  14        2PZ        -0.00150   0.02229   0.00000   0.00000   0.10268
  15        3S          0.00856  -0.02502   0.00000   0.00000   0.01221
  16        3PX         0.00000   0.00000   0.04824  -0.00000   0.00000
  17        3PY         0.00000   0.00000  -0.00000   0.04824   0.00000
  18        3PZ         0.00421   0.01657   0.00000   0.00000   0.04489
                           6         7         8         9        10
   6        3S          1.65594
   7        3PX         0.00000   0.22002
   8        3PY         0.00000   0.00000   0.22002
   9        3PZ         0.00000   0.00000   0.00000   0.16404
  10 2   N  1S          0.00856   0.00000   0.00000   0.00421   2.05944
  11        2S         -0.02502  -0.00000   0.00000   0.01657   0.01567
  12        2PX         0.00000   0.04824   0.00000  -0.00000   0.00000
  13        2PY         0.00000   0.00000   0.04824   0.00000   0.00000
  14        2PZ         0.01221  -0.00000   0.00000   0.04489   0.00000
  15        3S         -0.32785  -0.00000  -0.00000  -0.06637  -0.09822
  16        3PX        -0.00000   0.11963   0.00000   0.00000  -0.00000
  17        3PY        -0.00000  -0.00000   0.11963   0.00000  -0.00000
  18        3PZ        -0.06637   0.00000   0.00000   0.01828  -0.00000
                          11        12        13        14        15
  11        2S          0.14916
  12        2PX         0.00000   0.28612
  13        2PY         0.00000   0.00000   0.28612
  14        2PZ         0.00000   0.00000   0.00000   0.47871
  15        3S          0.27789  -0.00000  -0.00000  -0.00000   1.65594
  16        3PX        -0.00000   0.12947   0.00000   0.00000  -0.00000
  17        3PY        -0.00000   0.00000   0.12947   0.00000  -0.00000
  18        3PZ        -0.00000   0.00000   0.00000   0.13741  -0.00000
                          16        17        18
  16        3PX         0.22002
  17        3PY         0.00000   0.22002
  18        3PZ        -0.00000  -0.00000   0.16404
     Gross orbital populations:
                           1
   1 1   N  1S          1.98797
   2        2S          0.45919
   3        2PX         0.48263
   4        2PY         0.48263
   5        2PZ         0.79668
   6        3S          1.43714
   7        3PX         0.51737
   8        3PY         0.51737
   9        3PZ         0.31902
  10 2   N  1S          1.98797
  11        2S          0.45919
  12        2PX         0.48263
  13        2PY         0.48263
  14        2PZ         0.79668
  15        3S          1.43714
  16        3PX         0.51737
  17        3PY         0.51737
  18        3PZ         0.31902
          Condensed to atoms (all electrons):
              1          2
     1  N    6.702953   0.297047
     2  N    0.297047   6.702953
 Mulliken atomic charges:
              1
     1  N   -0.000000
     2  N   -0.000000
 Sum of Mulliken charges=  -0.00000
 Atomic charges with hydrogens summed into heavy atoms:
              1
     1  N   -0.000000
     2  N   -0.000000
 Sum of Mulliken charges=  -0.00000
 Electronic spatial extent (au):  <R**2>=    38.5803
 Charge=    -0.0000 electrons
 Dipole moment (field-independent basis, Debye):
    X=    -0.0000    Y=    -0.0000    Z=    -0.0000  Tot=     0.0000
 Quadrupole moment (field-independent basis, Debye-Ang):
   XX=    -9.8112   YY=    -9.8112   ZZ=   -12.0128
   XY=     0.0000   XZ=     0.0000   YZ=    -0.0000
 Traceless Quadrupole moment (field-independent basis, Debye-Ang):
   XX=     0.7339   YY=     0.7339   ZZ=    -1.4677
   XY=     0.0000   XZ=     0.0000   YZ=    -0.0000
 Octapole moment (field-independent basis, Debye-Ang**2):
  XXX=    -0.0000  YYY=    -0.0000  ZZZ=     0.0000  XYY=    -0.0000
  XXY=     0.0000  XXZ=     0.0000  XZZ=    -0.0000  YZZ=    -0.0000
  YYZ=     0.0000  XYZ=    -0.0000
 Hexadecapole moment (field-independent basis, Debye-Ang**3):
 XXXX=    -7.0750 YYYY=    -7.0750 ZZZZ=   -28.6358 XXXY=     0.0000
 XXXZ=     0.0000 YYYX=     0.0000 YYYZ=    -0.0000 ZZZX=     0.0000
 ZZZY=    -0.0000 XXYY=    -2.3583 XXZZ=    -5.6028 YYZZ=    -5.6028
 XXYZ=    -0.0000 YYXZ=     0.0000 ZZXY=     0.0000
 N-N= 2.362183037870D+01 E-N=-3.018242855933D+02  KE= 1.082095973468D+02
 Symmetry AG   KE= 5.304656510569D+01
 Symmetry B1G  KE= 0.000000000000D+00
 Symmetry B2G  KE= 5.106169169449D-33
 Symmetry B3G  KE= 5.649992860190D-33
 Symmetry AU   KE= 0.000000000000D+00
 Symmetry B1U  KE= 4.841635617175D+01
 Symmetry B2U  KE= 3.373338034674D+00
 Symmetry B3U  KE= 3.373338034674D+00
 Orbital energies and kinetic energies (alpha):
                           1         2
       1  (SGU)--O    -14.35103  21.81901
       2  (SGG)--O    -14.34947  21.83862
       3  (SGG)--O     -1.16523   2.58397
       4  (SGU)--O     -0.52753   2.38917
       5  (PIU)--O     -0.46621   1.68667
       6  (PIU)--O     -0.46621   1.68667
       7  (SGG)--O     -0.40391   2.10069
       8  (PIG)--V     -0.00975   2.16501
       9  (PIG)--V     -0.00975   2.16501
      10  (SGU)--V      0.53721   2.64279
      11  (SGG)--V      0.96360   2.76897
      12  (PIU)--V      0.98177   3.54813
      13  (PIU)--V      0.98177   3.54813
      14  (PIG)--V      1.10850   3.61565
      15  (PIG)--V      1.10850   3.61565
      16  (SGU)--V      1.13984   4.79121
      17  (SGG)--V      1.58356   4.29397
      18  (SGU)--V      2.26296   4.84188
 Total kinetic energy from orbitals= 1.082095973468D+02
 Leave Link  601 at Sun Jun 26 04:53:40 2011, MaxMem=    6291456 cpu:       0.0
 (Enter /fougeron/home/gauss3/g03/l9999.exe)

 Test job not archived.
 1\1\GINC-FOUGERON\SP\RTD-B3LYP-FC\3-21G\N2\BAUDINP\26-Jun-2011\0\\#P B
 3LYP/3-21G GFINPUT IOP(3/33=4) POP=FULL SCF=TIGHT TD=(NSTATES=20,MAXDA
 VIDSON=500)\\test N2\\0,1\N\N,1,1.0977\\Version=IA64L-G03RevC.02\State
 =1-SGG\HF=-108.8918888\RMSD=7.873e-10\PG=D*H [C*(N1.N1)]\\@


 LEARN FROM YESTERDAY,
 LIVE FOR TODAY,
 LOOK TO TOMORROW,
 REST THIS AFTERNOON.

           -- SNOOPY
 Job cpu time:  0 days  0 hours  0 minutes  2.1 seconds.
 File lengths (MBytes):  RWF=     19 Int=      0 D2E=      0 Chk=     10 Scr=      1
 Normal termination of Gaussian 03 at Sun Jun 26 04:53:40 2011.
